LAMMPS data file via write_data, version 7 Jan 2022, timestep = 1100001

4000 atoms
1 atom types

-0.10112205243160588 36.20112205243447 xlo xhi
-0.10112205243160588 36.20112205243447 ylo yhi
-0.10112205243160588 36.20112205243447 zlo zhi

Masses

1 63.55

Atoms # atomic

48 1 3.677336415315106 1.7246386567452214 1.695745224986296 0 0 0
44 1 1.7622344586257668 3.5368194930254466 1.6735136276300373 0 0 0
407 1 1.6178135875536994 1.6763858537633973 3.6023093379765014 0 0 0
446 1 3.557982922198395 3.4946023751040247 3.485829560785289 0 0 0
2 1 1.8619844551231883 1.8112542509622387 -0.03304601846754676 0 0 0
45 1 3.6353957748493526 3.437399876069232 36.12407378249612 0 0 -1
403 1 36.08442174516216 1.734345486737597 1.8198467584052551 -1 0 0
1 1 36.12389738130659 36.12859813372025 0.136074424219722 -1 -1 0
50 1 7.282677186836754 1.7690223645878442 1.5634897225600113 0 0 0
449 1 5.447246139476311 1.6401925867169953 3.4645169572040158 0 0 0
445 1 5.395965335489397 3.6248480074824068 1.7625155845352947 0 0 0
452 1 7.315432650800291 3.5128892371842 3.365772559082386 0 0 0
11 1 5.352239987945826 36.135921645347764 1.680476198398413 0 -1 0
6 1 5.448983109883451 1.660530435532755 36.13751523275317 0 0 -1
49 1 7.2089879951509985 3.656022740668718 36.08143749684606 0 0 -1
12 1 10.860113225831794 1.7582674457584855 1.654514634445602 0 0 0
453 1 9.02083287301769 1.7278980838478937 3.5162131975859436 0 0 0
410 1 10.802821081093681 3.568701634633234 3.4775274777224543 0 0 0
56 1 9.039528494419704 3.585769399827464 1.6263203096441068 0 0 0
10 1 10.897310174092818 3.455382174196075 36.12621690837912 0 0 -1
13 1 9.06488005531894 1.671888841179459 36.12078571731922 0 0 -1
778 1 14.362811532666093 1.5888572897428515 1.7804063213106638 0 1 0
414 1 12.664245972503185 1.7275210292318794 3.5594234702539964 0 0 0
20 1 12.763746044791501 3.554406560513701 1.8116845449659662 0 0 0
457 1 14.558271077139883 3.397972487932713 3.528109757336437 0 0 0
417 1 14.421860088300098 36.09309053224275 3.5563170549808207 0 -1 0
14 1 12.689143032921473 1.6490922794387157 36.17073941181206 0 0 -1
19 1 16.344528235933595 3.4258040586977274 1.718202195537139 0 0 0
418 1 16.393412786132007 1.576359417447315 3.432598277954856 0 0 0
60 1 18.287115712741468 1.650713191951454 1.7560552367437412 0 0 0
461 1 18.06223119685228 3.4068715561879803 3.6676836777446202 0 0 0
64 1 20.019761390590688 3.52251392463733 1.8520669023254976 0 0 0
23 1 18.081522989658637 36.078539883841 3.5055656709627985 0 -1 0
18 1 16.346451347247125 1.613503440899567 0.0032389241924369733 0 0 0
24 1 19.9149420957555 36.11099505621123 1.7798372250347352 0 -1 0
422 1 19.901432193823698 1.73631116577825 3.646961239548768 0 0 0
3624 1 19.917388738947814 1.6523416020952402 36.16569823326257 0 0 0
27 1 21.680712811015045 1.7564517671444315 1.8615388777279103 0 0 0
68 1 23.52735882789386 3.589359025947881 1.7555528676325993 0 0 0
465 1 21.836232172094164 3.572432181767353 3.5203625957638476 0 0 0
426 1 23.46167843707093 1.5939996841469077 3.5257254619777085 0 0 0
28 1 23.488111440139843 0.09556003889606715 1.6184025229472365 0 0 0
65 1 21.724698097025357 3.703490139073596 36.17541764896998 0 0 -1
31 1 25.293907622506868 1.723875699181114 1.7921948833572814 0 0 0
72 1 27.030081506278446 3.5057723297454957 1.7024677194783424 0 0 0
430 1 27.070294078428624 1.800590113090605 3.5119466766884 0 0 0
469 1 25.241726353834384 3.5030510238377333 3.626789450821663 0 0 0
429 1 25.23907328411926 -0.042550537452251194 3.583548617814688 0 0 0
70 1 25.267630632780858 3.548234581390836 -0.02414340488940142 0 0 0
33 1 27.21070653547539 1.634033919479472 -0.01622907026022266 0 0 0
35 1 28.958484075054983 1.707875053780341 1.7690888899047728 0 0 0
476 1 30.785038101047437 1.7248831115269347 3.5963760057589242 0 0 0
438 1 30.781441091543154 3.5538435976425986 1.8657944749729423 0 0 0
473 1 29.000019185402408 3.6038395883758954 3.5690901459513253 0 0 0
434 1 30.809309016001823 -0.004030301072144221 1.710150692136427 0 0 0
34 1 30.77145442295155 1.8430918014085707 -0.010932546451753233 0 0 0
441 1 -0.08788879282202089 3.4685820989328078 3.6628672965495426 0 0 0
40 1 32.69114442345507 1.833043755614716 1.7021401541814298 0 0 0
801 1 34.3006002646189 1.7329377440754516 3.6525016273300697 -1 0 0
477 1 32.48373268825628 3.568650295559774 3.521452577880244 0 0 0
80 1 34.39022166292933 3.7148838711286927 1.8260593844093223 0 0 0
3 1 34.32927226477582 -0.08948758959568089 1.885671659693522 -1 0 0
437 1 32.52677036555628 -0.06435112241347396 3.503001161175784 0 0 0
38 1 32.64848025921381 0.08145906033967529 36.12006335004866 0 0 -1
84 1 1.7481143358994415 7.253451421884891 1.6873431500268088 0 0 0
47 1 3.488233640203622 5.3370082895344195 1.624813899249785 0 0 0
442 1 1.6577933955589326 5.270039838056779 3.5622445925737867 0 0 0
488 1 3.510937450757997 7.085516533744305 3.451326698700814 0 0 0
42 1 1.703950105389081 5.28146238214413 -0.013800343179358895 0 0 0
85 1 3.58942817669008 7.257930499499593 -0.0899503701515082 0 0 0
88 1 5.273393208802524 7.2118050539458 1.6319818689615477 0 0 0
51 1 7.265772312746377 5.344412357548903 1.6006812128261154 0 0 0
450 1 5.382607610700014 5.4278999491818185 3.5908929010927193 0 0 0
489 1 7.071943294081452 7.134544661121747 3.4566897791921565 0 0 0
89 1 7.174922437991946 7.1922398403362635 36.1769997699253 0 0 -1
46 1 5.3368763982676315 5.346617539665783 36.11786585598046 0 0 -1
55 1 10.696010792831775 5.259363218991202 1.7004694587636218 0 0 0
92 1 8.924060421753492 7.30971085396239 1.690984969167592 0 0 0
455 1 8.946212750791 5.51470274674818 3.3872680087223417 0 0 0
493 1 10.710463459704696 7.182619783761398 3.5237985714603037 0 0 0
96 1 12.550615704992184 7.146827525871961 1.6888841417086156 0 0 0
59 1 14.434756200538104 5.3375740703421615 1.679643451342428 0 0 0
454 1 12.554397800233765 5.54212197134181 3.5091528857932883 0 0 0
497 1 14.379967499528647 7.212459908749856 3.547183506256696 0 0 0
54 1 12.524623814512156 5.3422429925442945 36.183815445542024 0 0 -1
97 1 14.27871608523872 7.161816070710614 -0.07206654547696201 0 0 0
458 1 16.154937445885864 5.330730830783832 3.5899948067537606 0 0 0
100 1 16.16838289266448 7.121415606838702 1.7273879682197009 0 0 0
63 1 18.05506486669859 5.249386047591057 1.802070929983944 0 0 0
501 1 18.010259862924155 7.142897703592856 3.4050109036359717 0 0 0
58 1 16.18444211516229 5.328805305721329 -0.03403830080898784 0 0 0
462 1 19.971242190723668 5.355816647231178 3.485048862989241 0 0 0
104 1 19.816734290051105 7.156594390363871 1.7401870708489997 0 0 0
62 1 19.88903833906617 5.441455577437016 0.046516740705513204 0 0 0
67 1 21.79487852317039 5.404156915380585 1.729482677324135 0 0 0
108 1 23.505390874225984 7.407339988053142 1.7473110472410285 0 0 0
466 1 23.47261256384394 5.44563494438255 3.5638528081247753 0 0 0
505 1 21.74986495722595 7.211857702946816 3.4996144662812325 0 0 0
66 1 23.626330101280395 5.452007425040283 -0.03386338627255958 0 0 0
71 1 25.287333295691646 5.368573041050852 1.7332572131704949 0 0 0
112 1 27.063061745609616 7.212931432883808 1.6840486277114493 0 0 0
470 1 27.264399785825187 5.343496770007442 3.5759724596403575 0 0 0
109 1 25.433766279570015 7.108147988922797 3.491074178290905 0 0 0
73 1 27.114920809209107 5.377785209611356 0.09115321220713704 0 0 0
3712 1 25.269128820305124 7.333123854692985 -0.02432200604228206 0 0 1
75 1 29.008822250166624 5.434610473456705 1.5797563226221139 0 0 0
116 1 30.718954111681477 7.32893142897666 1.7647985830269908 0 0 0
513 1 28.891193586165564 7.31871418305168 3.481698709006468 0 0 0
474 1 30.72889904103466 5.4224139989358 3.560004363036701 0 0 0
76 1 30.776088394315018 5.377868293089227 -0.013346678348393065 0 0 0
43 1 36.17908344746331 5.383609061361287 1.807734877785438 -1 0 0
484 1 -0.04126282391236913 7.22384727750733 3.4592520808693017 0 0 0
81 1 36.181597337307316 7.145816546353506 36.14453444890996 -1 0 -1
119 1 32.54479493468296 7.221545712755758 3.526741987830566 0 0 0
79 1 32.494436707707564 5.398351352121485 1.7855301647139115 0 0 0
518 1 34.467073787912824 7.153378977044373 1.7187971447099784 0 0 0
478 1 34.29654336369766 5.486149403366928 3.6340599011069328 0 0 0
117 1 32.64484293224053 7.198861617927553 -0.016269292947077102 0 0 0
124 1 1.840457631189735 10.897675310319281 1.7438759288033456 0 0 0
485 1 1.7682300777380189 9.055294641294296 3.4426416259517967 0 0 0
525 1 3.645906686028852 10.88636303176725 3.4896653702773532 0 0 0
87 1 3.669405312692856 9.045170719171411 1.6675281116024556 0 0 0
82 1 1.6767418657966098 8.98761431469476 -0.039520127683483945 0 0 0
125 1 3.507281533930661 10.95539644650582 36.18656360465969 0 0 -1
83 1 36.140003211517005 9.030025019067192 1.6017893874075053 -1 0 0
128 1 5.384221553633711 11.027199836778992 1.6009812056358101 0 0 0
91 1 7.104632934226343 9.113404999841691 1.726528779769451 0 0 0
486 1 5.344732051051236 8.999491466455993 3.59929167577653 0 0 0
529 1 7.117706174802128 10.94021979925918 3.451865968663298 0 0 0
86 1 5.304872777693519 9.144983424097944 36.1709203877511 0 0 -1
95 1 10.754631206804493 9.022044438136403 1.7253567653176132 0 0 0
132 1 8.945682183635954 10.747079840792363 1.7010020947248554 0 0 0
490 1 10.708733886671968 10.885544119838556 3.4452478244459885 0 0 0
495 1 8.88640648832122 9.03424266405618 3.4966418368108436 0 0 0
133 1 10.889343277314563 10.81417264653837 -0.03487237052882251 0 0 0
534 1 12.666054286600382 10.820582412640467 1.599704583688074 0 0 0
99 1 14.373977410885505 8.85333282914063 1.759159446857041 0 0 0
136 1 14.354252414553189 10.776975958795662 3.4746928124755603 0 0 0
533 1 12.535585238128528 8.96137526731115 3.5201668291131183 0 0 0
94 1 12.522341773551156 9.004954024234802 -0.09000411338040659 0 0 0
498 1 16.21313244064366 8.947318858666428 3.549495547653394 0 0 0
537 1 16.187018222713288 10.894325331125657 1.6814479720891298 0 0 0
103 1 18.054021866881072 9.109119042991685 1.6458779342255552 0 0 0
541 1 18.06679576442154 10.859928757862757 3.562487704970146 0 0 0
144 1 19.7477015512749 10.924474322946354 1.6351702051938368 0 0 0
502 1 19.801929067948468 9.121238985083856 3.467166330302372 0 0 0
102 1 19.741548170040627 9.04016501531327 36.130099184729296 0 0 -1
107 1 21.53534157121694 9.08956926583202 1.7757877941753248 0 0 0
545 1 21.64870386565528 10.875891055316313 3.501919190517666 0 0 0
148 1 23.545485952935266 10.830434261134855 1.8172282762835925 0 0 0
506 1 23.5694380235507 8.993240108814366 3.539833680475134 0 0 0
145 1 21.633805191597766 10.91533785599799 0.010368223064811569 0 0 0
106 1 25.31894164175641 9.095726445730294 1.7663255548954788 0 0 0
152 1 27.199332563434982 10.921629150284707 1.6309024998988741 0 0 0
111 1 27.10460583058015 9.071147979133952 3.533604891637448 0 0 0
550 1 25.3774214676768 10.780396960011748 3.5811452264457913 0 0 0
115 1 28.887231118704502 9.120031364676805 1.6065682208343004 0 0 0
156 1 30.822374011215533 10.809137594958608 1.8736361782054058 0 0 0
553 1 28.94848040960045 10.850460963223174 3.4752308932981184 0 0 0
514 1 30.709710447418892 9.101508147839851 3.5325518760973367 0 0 0
114 1 30.824208625802687 8.998197876916496 0.05162607574981162 0 0 0
482 1 0.04277383561280601 10.705766753429035 3.507269079161016 0 0 0
121 1 36.1464660305581 10.808207327904949 -0.0899141535511377 -1 0 0
118 1 32.68843440291456 8.998613407351739 1.8516512021818647 0 0 0
557 1 32.56048331082877 10.856874119681011 3.5268191798042845 0 0 0
160 1 34.44909719056235 10.930879677296955 1.6566084229924096 0 0 0
481 1 34.44631525117497 9.087547044377795 3.4539144234123733 -1 0 0
157 1 32.6107847336762 10.893647387196296 -0.06727288675010573 0 0 0
3720 1 34.33075181307839 8.976158369016721 36.187099793758804 0 0 0
164 1 1.6983602422659714 14.412286150454527 1.727568149610795 0 0 0
127 1 3.63935405622992 12.759966956969254 1.694972869578805 0 0 0
565 1 3.6255805057780437 14.500048472099511 3.5598535091720866 0 0 0
522 1 1.724028424713262 12.718684561667725 3.56767040071311 0 0 0
122 1 1.7820784681804027 12.63612178274486 36.18907311888086 0 0 -1
165 1 3.5116422625007466 14.49922975224831 36.15485868059545 0 0 -1
123 1 -0.04226104641327225 12.628530899737898 1.6097199772125197 0 0 0
161 1 0.06214027262883698 14.464870322135377 36.14542059350753 0 0 -1
131 1 7.153299054712922 12.80778153507838 1.7361031863489953 0 0 0
129 1 5.420499205136622 14.576966555948449 1.6889589896283475 0 0 0
526 1 5.458280905923831 12.777537147720206 3.5880092344831147 0 0 0
569 1 7.228146401730363 14.487722021181687 3.729779681880374 0 0 0
172 1 7.165091156617001 14.460620861674412 -0.022636560345992485 0 0 0
135 1 10.806305552485473 12.720847133162007 1.7151228082827574 0 0 0
530 1 9.144880641738942 14.69595089055028 1.7571875383637 0 0 0
612 1 10.872605320128935 14.514361577745568 3.5521725607508086 0 0 0
573 1 8.946611961075916 12.77379254751429 3.4250680771869404 0 0 0
130 1 9.04115037049596 12.795068686053131 -0.10095828187015472 0 0 0
140 1 14.478126391028201 12.755387227739272 1.7816173115902685 0 0 0
176 1 12.638826776709768 14.555234519108154 1.6824586095196452 0 0 0
969 1 12.646494358170266 12.611477207979702 3.526681473716715 0 0 0
579 1 14.523468989153093 14.498599276560942 3.580911849052339 0 0 0
143 1 16.203251244817988 14.521591529089822 1.6912471984550432 0 0 0
538 1 16.232508920395617 12.65407387348406 3.55814200961654 0 0 0
181 1 18.010409829408584 12.593872562310434 1.6893981678354617 0 0 0
582 1 17.92714391217178 14.475948836964463 3.590151967971714 0 0 0
542 1 19.75936742393567 12.552173122721896 3.6216486032381074 0 0 0
184 1 19.79508980620478 14.37573800516207 1.6678288908226249 0 0 0
147 1 21.601649854109567 12.556303287544605 1.767021500123863 0 0 0
188 1 23.572247936674472 14.331270565606111 1.6543083300786123 0 0 0
546 1 23.365852805514955 12.530552035913072 3.5926791051440934 0 0 0
585 1 21.528615123400712 14.261419788718934 3.4781933205986104 0 0 0
146 1 23.34594965075884 12.614595734847647 -0.09385626557733244 0 0 0
151 1 25.382510440880896 12.563080661096665 1.7559518754905195 0 0 0
150 1 27.202341297543622 14.401606131642351 1.6869275134071962 0 0 0
155 1 27.09752592753977 12.762990105749621 3.492191792253389 0 0 0
589 1 25.237583024221795 14.331134897624123 3.5398007931531095 0 0 0
189 1 25.221657986026877 14.37054050475058 36.127660948386826 0 0 -1
193 1 28.934909313435742 12.557671674564821 1.602307666692512 0 0 0
196 1 30.717346085584772 14.469948226708047 1.6683089388183523 0 0 0
554 1 30.72365712286107 12.718769288722138 3.494033418337659 0 0 0
593 1 28.895788233941808 14.434159753950551 3.577593795602206 0 0 0
3755 1 28.95171046950785 14.47491273841866 36.06354822295325 0 0 0
561 1 -0.031347329578437666 14.42363247792658 3.5197979939500432 0 0 0
597 1 32.602673761022885 14.377854210733464 3.619731433568977 0 0 0
159 1 32.634034870074295 12.605913987138692 1.743265457819746 0 0 0
200 1 34.33383677766432 14.311555038846686 1.8097558210532478 0 0 0
558 1 34.49648660295529 12.445281619721936 3.5205299534455565 0 0 0
158 1 34.4316696091042 12.694298326116447 36.12804933382113 0 0 -1
197 1 32.44405197101929 14.42938502988797 -0.08752692774218462 0 0 0
167 1 3.604779222050105 16.32492063479952 1.6173046690282749 0 0 0
562 1 1.8138824408983771 16.237507582466506 3.4548526305455938 0 0 0
203 1 1.7571302908074289 18.078231617827807 1.7224192744204647 0 0 0
605 1 3.717178783204575 17.977877530137093 3.512307461681566 0 0 0
207 1 3.4967985937131627 19.81081723202199 1.671095590995028 0 0 0
642 1 0.00171659904028508 19.893560644516956 1.7142690368349682 0 0 0
205 1 3.4262707434655746 18.13794990163196 36.14770090469913 0 0 -1
162 1 1.7380826927841628 16.28776737431839 35.97339786788468 0 0 -1
204 1 1.7604006046059095 19.909962778783477 3.4746891098281645 0 0 0
171 1 7.287294726169641 16.418945756437946 1.6627388063941853 0 0 0
169 1 5.399651032066465 16.2619987106646 3.459300130165759 0 0 0
208 1 5.465831515272165 18.12882992484558 1.6551921585273262 0 0 0
609 1 7.295989380495455 18.218184233634723 3.5909271727257415 0 0 0
211 1 5.380492874531169 19.894311996299475 3.4884070420202886 0 0 0
206 1 7.185041674168316 19.868982192889543 1.5769434927128971 0 0 0
166 1 5.3388157344496285 16.317888811525545 36.080444167330604 0 0 -1
216 1 10.889867937982855 16.395603465923298 1.7671953986313205 0 0 0
212 1 9.107822084762017 16.41889108693479 3.5823793665237806 0 0 0
215 1 9.164036573862006 18.22697168939268 1.7645570616115303 0 0 0
175 1 11.007160331539655 19.917608725805042 1.739636258413545 0 0 0
653 1 9.185401486125352 20.038499090181595 3.61651032645233 0 0 0
610 1 10.943364712559662 18.143434008223704 3.56962734051284 0 0 0
170 1 9.078606637788477 16.354245652014082 36.13857708640319 0 0 -1
576 1 14.422838709852062 16.396112027190593 1.728711893890369 0 0 0
179 1 12.762781826613994 16.37875045692078 3.6358266234118286 0 0 0
3820 1 12.676837236228996 18.12361854489505 1.8083787898696393 0 0 1
577 1 14.502401377851932 18.250710656109828 3.5839783423427587 0 0 0
617 1 14.401132220068902 19.99610130426739 1.6497962712146557 0 0 0
614 1 12.732825609477645 19.960196684692576 3.5674940659871126 0 0 0
578 1 16.247103918216773 16.21140782362637 3.48084301141966 0 0 0
180 1 18.092141867092955 16.277428399311667 1.6551722040518733 0 0 0
621 1 19.79072689651282 16.075091235744615 3.483938585479166 0 0 0
220 1 16.25366667372396 18.11487421262741 1.7653787016012281 0 0 0
224 1 18.140698340853813 18.02830489696347 3.4533666089118733 0 0 0
622 1 19.915624371257657 19.8752194830185 3.55250933009843 0 0 0
258 1 16.26134934999885 19.978433056722007 3.4192279329579782 0 0 0
225 1 20.01224102222872 18.037389210843454 1.7816123638648247 0 0 0
218 1 16.217173265146027 19.950094274527196 -0.07923369933139877 0 0 0
183 1 16.14319339353335 16.35333999264485 0.014790775047079804 0 0 0
221 1 18.122243490770487 18.13293302582704 36.180459466115515 0 0 -1
586 1 23.507941074051697 16.229326527707663 3.431592291762078 0 0 0
187 1 21.695866764479533 16.1434539307384 1.779552509901475 0 0 0
625 1 21.693995279097162 18.107983257930286 3.5965035924276347 0 0 0
228 1 23.382697626101482 18.134982311401558 1.6386341889311513 0 0 0
626 1 23.589349754605205 19.965284701916982 3.508241713899163 0 0 0
227 1 21.738710071642753 19.97283946576792 1.7430768704981199 0 0 0
226 1 23.43678041520506 19.920092317508054 -0.054137899220173306 0 0 0
186 1 23.43586553090927 16.30995504382021 0.02653422121907223 0 0 0
192 1 27.054045218085804 16.183214521967418 3.5045639326450835 0 0 0
191 1 25.169226594403238 16.189332259373977 1.739805984788009 0 0 0
232 1 27.07321825910294 18.134664306390643 1.838227934948527 0 0 0
629 1 25.198550051863826 18.01319435626945 3.5302557857490315 0 0 0
632 1 27.02723255569781 19.89825288946813 3.515567174415919 0 0 0
231 1 25.28543036297018 19.986927406904048 1.6137725348643495 0 0 0
190 1 27.141301888696503 16.179218326981594 0.06760314674600806 0 0 0
230 1 27.19795392631275 19.890116726937354 36.168007871644356 0 0 -1
229 1 25.204383098735505 18.041747389454017 0.034505140934411066 0 0 0
195 1 29.002385172971366 16.246466650940633 1.7693672482175071 0 0 0
594 1 30.748291349805573 16.264599455425717 3.5044434652907253 0 0 0
236 1 30.812160447752156 18.05212590268316 1.6779906181968594 0 0 0
590 1 29.02605148594709 18.012308112705536 3.472629873610458 0 0 0
235 1 28.85402052065928 19.948572634593052 1.9538069084994687 0 0 0
633 1 30.82642091596137 19.78749617173884 3.5375069681804123 0 0 0
3840 1 30.83136011875749 19.816055139864986 -0.09560745614960145 0 0 1
601 1 -0.013552732515648813 18.111664850775767 3.5756955695832127 0 0 0
163 1 -0.08707711553482511 16.303333682366233 1.8411998182622977 0 0 0
598 1 34.43879047844362 16.3448221519093 3.5926460301745253 0 0 0
199 1 32.5868282296078 16.209982649836938 1.8640126862316944 0 0 0
240 1 34.375286657789125 18.088772116835766 1.759553048639756 0 0 0
637 1 32.69573846020675 18.0740635994627 3.5426711361758962 0 0 0
239 1 32.565655012339725 20.00391977418886 1.8119296225255639 0 0 0
634 1 34.4473332111815 19.922919403140167 3.550401351967229 0 0 0
198 1 34.51464303611837 16.21815194532727 0.027157800628315493 0 0 0
244 1 1.7527636645564262 21.605650849192187 1.5416930130270683 0 0 0
247 1 3.5983542792641394 23.570321694325365 1.760733685792344 0 0 0
602 1 3.629281266747176 21.544207066554105 3.461187456810982 0 0 0
644 1 1.6921407744775256 23.43220531571826 3.3137533441996974 0 0 0
641 1 36.148882794774536 21.64321496513171 3.417397953242553 -1 0 0
606 1 5.276615348587107 21.645638487654697 1.6317802828723353 0 0 0
248 1 7.1816510793738155 23.462984524493407 1.5894427871850423 0 0 0
649 1 7.28822147232545 21.620802899916075 3.4498395895138647 0 0 0
646 1 5.284621790949663 23.336820729945405 3.4476445869290515 0 0 0
252 1 9.048637028658815 21.68475742890272 1.5579325499556798 0 0 0
690 1 10.854366787322466 23.582738390923648 1.6455363280280442 0 0 0
656 1 10.971873301358004 21.782360174072682 3.429892031220017 0 0 0
650 1 8.949375881146794 23.48030806559801 3.572109117118829 0 0 0
655 1 12.583518240416089 21.729896447879693 1.605892770612871 0 0 0
256 1 14.409413758051807 21.764446054261704 3.461679561656396 0 0 0
654 1 14.48485074800112 23.5023328555802 1.7939392513249766 0 0 0
1097 1 12.643352104020364 23.583129798135474 3.54043716429602 0 0 0
255 1 14.415746819570211 21.776000126841897 36.09882205471555 0 0 -1
618 1 18.067694530208325 19.9697494067293 1.7133898867453983 0 0 0
299 1 16.385661053147373 23.568330984711675 3.6272265092401197 0 0 0
701 1 16.262680382781177 21.818428227105397 1.6742668891780808 0 0 0
300 1 18.127785303076752 23.46677444993748 1.7404682847413078 0 0 0
657 1 18.099522370611094 21.836588939952595 3.5575272127887794 0 0 0
664 1 19.96888572124115 23.588994761215176 3.6376387532140417 0 0 0
264 1 19.9539174027664 21.70508932049573 1.921326127534595 0 0 0
262 1 19.96725557015283 23.509474055302743 -0.09544591655927304 0 0 0
3500 1 16.29379977647052 23.4342450995268 36.130868663767956 0 0 0
267 1 21.75422417639902 23.64336433197833 1.6879576052159841 0 0 0
268 1 23.44420055423591 21.689623911630605 1.5779584413398389 0 0 0
666 1 23.571701034009028 23.684585264119487 3.4992069287495293 0 0 0
665 1 21.829240098561886 21.815039956842046 3.5927307027167146 0 0 0
265 1 21.575710411366593 21.6997970565024 36.03320064638282 0 0 -1
272 1 27.047883637284265 21.787232798067784 1.6877633969020716 0 0 0
271 1 25.311099349856214 23.629225943880172 1.6868440415348225 0 0 0
669 1 25.36157646941404 21.678578977694695 3.521699547841186 0 0 0
670 1 27.074989073065062 23.450006689213428 3.606991837196379 0 0 0
3831 1 25.445837414655987 21.72155231119648 36.08936170609008 0 0 0
275 1 27.31770735618718 23.41598128406938 36.16098333511718 0 0 -1
276 1 30.786603894548943 21.670229791588028 1.6548845984427185 0 0 0
713 1 28.936688578309415 23.477219497745445 1.8573038947650227 0 0 0
674 1 30.791147709647277 23.591476202000187 3.7214178723849316 0 0 0
673 1 28.917763026177155 21.661836001114704 3.6352247506894657 0 0 0
243 1 36.10603169166212 23.571131623118657 1.7546562504736525 -1 0 0
279 1 32.57459872409375 23.53121515338673 1.6590412917063655 0 0 0
280 1 34.19507777324803 21.739620954143724 1.754260819234726 0 0 0
678 1 34.17533642337696 23.54016543020265 3.616223197437467 0 0 0
677 1 32.504641546180075 21.73771100857418 3.6323896871266967 0 0 0
277 1 32.46139996656019 21.71037223936429 36.13760437303345 0 0 -1
682 1 1.6775508937422878 25.391581589224206 1.7541207343196312 0 0 0
287 1 3.5104905920020277 27.1132102313308 1.8429336078886773 0 0 0
721 1 1.658227858543109 27.216468348963588 3.448171449834511 0 0 0
685 1 3.5718010690725652 25.219432696476908 3.5122397837968977 0 0 0
283 1 36.144314645200794 27.12897863850414 1.7603752220024815 -1 0 0
288 1 5.506984578937278 25.272813781815834 1.658842812545944 0 0 0
291 1 7.1796435929572775 27.196045507461605 1.6841199689693247 0 0 0
686 1 5.401647311104196 27.15542538191119 3.4854096971447803 0 0 0
689 1 7.110593355139467 25.23268237332704 3.608024890897733 0 0 0
292 1 8.816126621780601 25.376005849938004 1.759278188493406 0 0 0
732 1 10.816573439558498 27.108698845807737 1.8340252778716666 0 0 0
1050 1 8.99292987207504 27.045875317751417 3.636379387949967 0 0 0
652 1 10.720812536753703 25.22115428076932 3.5215926295245588 0 0 0
290 1 9.116982284997935 27.10318200641961 36.193592539721855 0 0 -1
336 1 12.632760251112098 25.254567510228004 1.747952563952954 0 0 0
296 1 14.403439849740533 27.191760762817474 1.7095389929559004 0 0 0
294 1 14.469318004154134 25.19463785599792 3.5069560670501474 0 0 0
737 1 12.554504485144113 26.961173346275658 3.6124157333577727 0 0 0
3900 1 14.317646991392552 25.208141639074856 36.16265458150857 0 0 0
3936 1 12.674235662287908 27.081235774705423 36.14198478049857 0 0 0
659 1 16.368531616595426 27.14287100868806 3.6086770832435526 0 0 0
3859 1 16.282773071683007 25.280401697451747 1.8746857174028262 0 0 1
698 1 18.025919186417397 27.17942323464506 1.7511655278180405 0 0 0
703 1 18.140823323867046 25.371452928678593 3.6096326403500965 0 0 0
304 1 19.82138245793661 25.304982476885517 1.730738638927475 0 0 0
702 1 20.025036736936872 27.064476329875657 3.5352789387212695 0 0 0
3863 1 18.18088446022495 25.207551299510573 -0.08399501037471369 0 0 1
3904 1 19.86358074529335 27.137810834804153 -0.08048901656416044 0 0 1
307 1 21.621683004642787 27.271140010234223 1.5932668739815414 0 0 0
308 1 23.536393585164692 25.512413125193707 1.7771125839720816 0 0 0
706 1 23.553901658339235 27.181919456457145 3.5113351396841863 0 0 0
705 1 21.794719202874816 25.472851277572076 3.4748359982394423 0 0 0
266 1 21.684825086363322 25.362837217544342 -0.007404255335098392 0 0 0
306 1 23.586897106711913 27.202084440047653 0.01590650454477982 0 0 0
270 1 27.27277904592953 25.253923544314976 1.8323687322463826 0 0 0
311 1 25.483389247679742 27.13354240962069 1.6057758944250158 0 0 0
710 1 27.126978177818494 27.05829465571171 3.515933658765815 0 0 0
709 1 25.32905060448659 25.329829784509784 3.583537377924637 0 0 0
315 1 28.94139491928768 27.13458745944103 1.7339347381149643 0 0 0
714 1 30.69440784486696 25.306859431127588 1.798869039640177 0 0 0
312 1 28.95858919527884 25.35078452955803 3.642776870088038 0 0 0
757 1 30.684038554863484 27.212779458185924 3.4916782681153404 0 0 0
314 1 30.710632477609916 27.2217803344635 -0.022496254332449173 0 0 0
681 1 36.144222444656734 25.355776514911682 3.558720181728534 -1 0 0
318 1 32.430843944215084 27.106969688870365 1.6519497938146233 0 0 0
320 1 34.33080748861027 25.39194368102087 1.665843949510309 0 0 0
720 1 34.35943050388807 27.275119881473113 3.5101679047762633 0 0 0
717 1 32.52445895800183 25.434641037797803 3.495489745814316 0 0 0
324 1 1.6789362819094356 28.937631593810476 1.669940687518853 0 0 0
722 1 1.60275383466322 30.800765654033363 3.4276840814291774 0 0 0
327 1 3.520963330391215 30.853467879145423 1.6660369948412181 0 0 0
725 1 3.5271842587625963 28.967343672080254 3.334948664893288 0 0 0
723 1 -0.09658041789470355 29.105365929274797 3.498584685019638 0 0 0
323 1 36.135183234727464 30.789014181326298 1.623736463233862 -1 0 0
325 1 3.412024019481411 29.17259812292285 -0.05300847804912039 0 0 0
3883 1 36.18221724639187 28.890558994258548 36.04797508434196 -1 0 0
328 1 5.363354341641909 28.858875911627397 1.6614352477777217 0 0 0
331 1 7.169214741873989 30.71859403533238 1.6111769026997338 0 0 0
726 1 5.457274868705429 30.809819477277287 3.346677173974781 0 0 0
729 1 7.156435410633347 28.850514095400754 3.586291783619987 0 0 0
329 1 8.972214909776799 28.882503755489495 1.7866592439037772 0 0 0
376 1 10.910242019603523 30.761349762624977 1.808719662638206 0 0 0
1133 1 10.78391694925006 28.92897528768952 3.68342459706012 0 0 0
730 1 9.030094914980795 30.73496101852699 3.554837243497429 0 0 0
330 1 9.058279244794283 30.74611359252016 -0.09383231640757439 0 0 0
333 1 10.919016055530983 28.925721382200035 -0.07428125835177779 0 0 0
339 1 12.629002248580585 28.863372257717444 1.7484007067281806 0 0 0
343 1 14.439099956042133 30.57255858682174 1.841716111171293 0 0 0
776 1 14.41558557718629 28.77025979322526 3.561734768737447 0 0 0
372 1 12.580866364984882 30.700559235954717 3.510018278444441 0 0 0
334 1 12.819579514942276 30.729507691621198 -0.08174483064324473 0 0 0
298 1 14.559511685241267 28.919363713022108 36.067241629131175 0 0 -1
1137 1 16.260552301278423 28.83961977822722 1.7062642943214095 0 0 0
340 1 16.06603904680776 30.74787319315303 3.6251007900346353 0 0 0
385 1 17.939448380311685 30.76690143353833 1.810222926523223 0 0 0
1138 1 18.00037221346731 29.020926325711457 3.482788939850009 0 0 0
742 1 19.926219736730488 30.660670600689652 3.6048585367890045 0 0 0
344 1 19.800483021094387 28.940613491481006 1.7652659689736883 0 0 0
3942 1 19.871933420801856 30.729089542640168 36.1962979826783 0 0 0
347 1 21.71161661139755 30.870258119687527 1.719917421040431 0 0 0
348 1 23.6267720436299 28.998869574067992 1.7564683279669748 0 0 0
747 1 23.55153341625683 30.7942568656301 3.5004167124873216 0 0 0
745 1 21.678551367983555 29.027458862099735 3.492454026002666 0 0 0
305 1 21.78652516720022 29.105353263177403 -0.05092555333974454 0 0 0
352 1 27.178560650298486 29.00091230359955 1.841621312302528 0 0 0
351 1 25.332726947902067 30.800429255085383 1.6793268334056113 0 0 0
749 1 25.36324406956939 29.06081078462778 3.5627336942705257 0 0 0
750 1 27.256577097871585 30.770852352729303 3.6514656677663417 0 0 0
355 1 28.90182883912956 30.80006261738867 1.7017359097115394 0 0 0
754 1 30.695283543459635 28.98243910828605 1.753034903211312 0 0 0
797 1 30.62105514337816 30.736391429345154 3.550603969036514 0 0 0