LAMMPS data file via write_data, version 7 Jan 2022, timestep = 160401

18000 atoms
2 atom types

-5.148741835747131 50.1487418357451 xlo xhi
-5.148741835747131 50.1487418357451 ylo yhi
-6.864989114327095 66.86498911432433 zlo zhi

Masses

1 26.9815
2 63.54

Atoms # atomic

2 2 -3.2703121640525747 -3.336399325057214 -6.82809533304569 0 0 0
3 2 50.114621837648706 -3.283040047357037 -4.989462762714441 -1 0 0
7 2 -1.41790130023548 -3.4148991991186253 -5.069939326959663 0 0 0
11 2 2.272397728767575 -3.42680623125812 -5.221158575810856 0 0 0
68 2 0.3913401274807553 -1.6256908183148715 -5.0623615638441795 0 0 0
8 2 0.5396094147516823 49.9996434851559 -5.034924096166907 0 -1 0
6 2 0.4082327888198636 -3.444394886421261 66.8033477424809 0 0 -1
5 2 -1.4412795451490208 50.00306628765104 66.82201058361073 0 -1 -1
65 2 -1.425338751004912 -1.5787795074763071 66.7965525191218 0 0 -1
10 2 4.164984181703712 -3.3671513260453088 66.73170220375476 0 0 -1
15 2 5.976076854353687 -3.464574551715863 -5.023036363384705 0 0 0
76 2 7.683732913209681 -1.5778625946233857 -5.11090648679969 0 0 0
19 1 9.592898550641456 -3.3373230767307804 -5.122545718073347 0 0 0
77 2 9.541847058225116 -1.4718543901458632 66.71533886924219 0 0 -1
14 2 7.676792633663691 -3.270596214207435 66.7025500478841 0 0 -1
80 2 11.336413563268085 -1.3972074450939829 -5.121151345517685 0 0 0
20 2 11.554918590648928 -5.093570060089879 -4.892599438934418 0 0 0
81 2 13.167750350630566 -1.5059421814088858 -6.815968662475591 0 0 0
23 2 13.306961178699947 -3.096376788170564 -4.918995417266617 0 0 0
27 2 16.936999572672143 -3.164681510811298 -4.9248000332120005 0 0 0
22 2 14.998983837351457 -3.0891186773674466 -6.802247502286998 0 0 0
25 2 16.919755430347955 -5.120848074693455 66.81872625664433 0 0 -1
84 2 15.135261650371657 -1.2950557079629612 -5.04579983419741 0 0 0
21 2 13.317796236196383 -5.105359303297433 -6.83388487488381 0 0 0
85 2 16.98714112831163 -1.3467678679583512 66.85912780183934 0 0 -1
31 2 20.59278547941528 -3.3995115137437955 -4.96898690708112 0 0 0
26 2 18.67618167387932 -3.3514983017032898 -6.750771845201297 0 0 0
88 2 18.523193498199735 -1.4183806321654298 -5.021807657719664 0 0 0
28 2 18.62767555828363 -5.009360953846974 -4.980713029891581 0 0 0
30 1 22.470929846977995 -3.167160661670259 -6.8143427291349905 0 0 0
35 2 24.39609538863748 -3.1872295654190834 -4.823861765496884 0 0 0
34 2 26.360570551698643 -3.184389469430759 66.84931897115358 0 0 -1
36 1 26.302706331720785 50.1180374501553 -4.815039572964944 0 -1 0
39 2 28.183268739996528 -3.1358506680801583 -4.902310148705697 0 0 0
100 2 30.07807230163263 -1.4740654720099244 -4.99929908805913 0 0 0
40 2 30.06000610878047 -5.136298264944801 -4.965612593330725 0 0 0
38 2 29.898414775331887 -3.2742298722602303 -6.844104975813248 0 0 0
37 2 28.09491676359108 -5.118191312578443 -6.653237088060764 0 0 0
43 2 31.736114582224403 -3.2571549593317917 -5.0482195982980125 0 0 0
104 1 33.6127066182255 -1.3484337376862787 -4.997972949351826 0 0 0
47 2 35.34364000198651 -3.3877472332569027 -5.017912325241777 0 0 0
108 2 37.2042594511013 -1.5465081894247419 -5.071311930610214 0 0 0
45 2 35.48517188061687 -5.057649704533919 -6.811384711401496 0 0 0
48 2 37.066502977843726 49.966371125178185 -4.958496827192483 0 -1 0
51 2 39.08690149582614 -3.4150894448601337 -5.080599265559766 0 0 0
55 2 42.801276493617905 -3.2745067343258087 -5.027493482490971 0 0 0
112 2 41.01274075159711 -1.6358603577611608 -5.2538610455300185 0 0 0
50 2 40.89410860746503 -3.4500908827039023 66.80821910657457 0 0 -1
54 2 44.56672765940556 -3.2798957528305213 -6.7583038182584465 0 0 0
116 2 44.759881722338065 -1.6460451686812978 -5.022684775509639 0 0 0
56 1 44.5819569722689 50.086719567548194 -4.936859473005974 0 -1 0
113 2 42.767837493530536 -1.4662376682381049 66.76127594164652 0 0 -1
59 2 46.55139502629667 -3.377811890685823 -5.106869375250911 0 0 0
58 2 48.29204904237973 -3.318532572305844 -6.696754385252138 0 0 0
120 2 48.30981769712002 -1.5988920786790017 -4.881540392608319 0 0 0
60 2 48.27190888582487 -5.1190928150268045 -4.964263096463143 0 0 0
1 1 50.111564588283024 50.12060830185665 -6.835173485736839 -1 -1 0
64 2 -3.1605165406047435 -1.4560302212458054 -4.988429539304304 0 0 0
124 1 -3.127133983401022 2.061849028328197 -5.029150423398012 0 0 0
67 2 -1.347857884809391 0.21973787109219245 -5.071512119936818 0 0 0
61 2 -5.041186595706366 -1.61198866692596 -6.858225543302579 0 0 0
63 2 -5.039325562795882 0.2442532383483016 -4.935155277460534 0 0 0
128 1 0.3701134594076523 2.317309765358331 -5.148617872958658 0 0 0
72 2 3.9943423482550653 -1.5489773996838072 -5.087881469413191 0 0 0
71 2 2.236770081754446 0.26977229759989463 -5.104484550372232 0 0 0
75 2 5.609366262923581 0.2094953285865957 -5.003901509309625 0 0 0
133 2 5.846419406848778 2.062352330334612 66.84604125229566 0 0 -1
132 2 3.8911363054898604 2.2143846641860137 -5.101348167698676 0 0 0
69 2 2.134039574931517 -1.5376380432460528 66.85263088003524 0 0 -1
70 2 4.041653312328018 0.2902256095671012 66.77121168529322 0 0 -1
79 2 9.591577223640437 0.2199192161021104 -5.058009097808101 0 0 0
78 2 11.400037504247937 0.45428282998200586 -6.755040748619581 0 0 0
83 2 13.321936171090389 0.42487650813651445 -5.026318227254526 0 0 0
140 2 11.253013149899683 2.126577728561493 -4.896027080596731 0 0 0
141 2 13.167533157099985 2.252051793804365 66.84106655509609 0 0 -1
87 2 16.97086356820405 0.31486112594585247 -5.087094414760994 0 0 0
144 2 15.180480694355271 2.3263261948328395 -5.046250050253483 0 0 0
82 2 15.162129101735147 0.4252681819136024 -6.730928158377973 0 0 0
148 1 18.78162826705945 2.3653273804843815 -5.044812369672314 0 0 0
91 2 20.655871444512538 0.502877103212386 -4.8874374754924474 0 0 0
89 2 20.518604912477038 -1.2650887493904142 -6.686029936061241 0 0 0
92 2 22.503573208516364 -1.2989636915346363 -4.945086487371114 0 0 0
152 2 22.211007206010233 2.2428299622594468 -5.040466662469957 0 0 0
90 2 22.441359587872597 0.5596561671930509 -6.704785367788302 0 0 0
96 2 26.386115452978547 -1.4918647686468125 -5.03187827777162 0 0 0
95 2 24.264642782147437 0.35444400000625276 -4.9777536615173394 0 0 0
93 2 24.480009195135473 -1.4688361075959877 -6.781274636257032 0 0 0
99 2 28.141333933720418 0.4345204041481532 -5.190556019953642 0 0 0
97 2 28.20732032199554 -1.4537335574835097 -6.771577804204306 0 0 0
103 2 31.87779669090839 0.7035699612188866 -5.132536639482053 0 0 0
164 2 33.67388692783605 2.217740880322479 -5.070872635094932 0 0 0
107 2 35.4430990211597 0.4202874105004506 -4.983731355820517 0 0 0
111 2 39.19388094905537 0.3480954399002467 -5.125981498259689 0 0 0
106 2 37.24870687561308 0.5604794676732059 -6.778567930687235 0 0 0
165 2 35.419176843187955 2.3846190360791892 66.84568715300739 0 0 -1
172 2 40.983194898442804 2.308820496490741 -5.017904694897979 0 0 0
169 2 39.1285229945875 2.146423277951004 66.74864291203467 0 0 -1
1010 2 40.92345709034953 0.3375092528360142 -3.1219794168569304 0 0 0
117 2 46.596214655328296 -1.4557126223975083 -6.755620188092432 0 0 0
115 1 42.74887209342138 0.39432244075425693 -5.0173527496177535 0 0 0
114 2 44.629262654301236 0.34245753045746596 66.79024315321261 0 0 -1
119 2 46.57451457042524 0.3368416158326806 -4.98188347954148 0 0 0
118 2 48.537117257367704 0.28447815040409985 -6.8052023762558305 0 0 0
180 2 48.347787865200296 2.2530085612767357 -5.035945115876521 0 0 0
127 2 -1.5401293126621343 4.1103397079041155 -5.118675432590251 0 0 0
126 2 0.427754762593775 4.2521239894607135 66.7851680703579 0 0 -1
131 2 2.2234027849526727 4.038797046239152 -5.093277880388641 0 0 0
130 2 4.029914348458577 4.049529798452909 66.77533265718391 0 0 -1
192 2 3.937923501457119 5.8510960771019445 -4.964492717154917 0 0 0
135 2 5.823295059208691 4.053471909125539 -5.132361751474076 0 0 0
129 2 2.2596043851377487 2.029734081844203 66.78865814040023 0 0 -1
136 2 7.712186186779496 2.150616573405073 -5.078943660277458 0 0 0
139 2 9.663153759118353 4.037760491422423 -4.874607757626094 0 0 0
143 2 13.162566470582895 3.9791878152083253 -4.959460298896046 0 0 0
1038 2 11.536150176010672 3.955180692180676 -3.2298417371982935 0 0 0
1097 1 9.533381544786982 5.869748427939651 -3.0726200786237094 0 0 0
147 1 16.811631020989317 4.240165112377895 -4.964476026015313 0 0 0
204 1 14.948784022514058 6.097666301804892 -5.143859827745379 0 0 0
151 2 20.92637975217119 4.2001425621392805 -4.977484365297176 0 0 0
208 2 18.8346166719993 6.007831439403587 -4.917104487002341 0 0 0
155 1 24.200527360408245 4.1650874579244395 -4.994356436929945 0 0 0
156 1 26.097309536571597 2.316619109396651 -5.075170870513054 0 0 0
160 2 29.876476355515138 2.240005002730161 -5.122265759655349 0 0 0
159 2 28.02007169348915 4.06969717658167 -5.020476871639572 0 0 0
220 2 29.851297953935216 5.874921398346734 -5.030516208773752 0 0 0
163 2 31.740575920703876 4.1297205427121355 -4.982954301091544 0 0 0
162 2 33.54572713597732 4.071212555583626 -6.82674657717241 0 0 0
224 2 33.42348234638756 5.999604064538259 -4.909212182683503 0 0 0
1062 2 33.58899019629057 4.236178939511355 -3.0968977625955647 0 0 0
167 2 35.413557060700285 4.236686470995657 -5.01481473503631 0 0 0
168 2 37.310211144940965 2.300431672737009 -5.106709343313018 0 0 0
166 2 37.270212483332124 4.030589134600502 66.85366966003096 0 0 -1
171 2 38.96632772160678 4.037876971779271 -4.971607585520227 0 0 0
170 2 41.02055556267645 4.142850446266527 -6.797544675526602 0 0 0
176 2 44.82430811258214 2.246236962744825 -5.008140768199608 0 0 0
175 1 42.95062333239896 4.144702581748874 -5.048098262262158 0 0 0
123 2 -5.128485662223092 3.983373885396679 -5.090913081998718 0 0 0
179 2 46.645144809869855 4.110571997878882 -4.968587723484794 0 0 0
178 2 48.46280411290477 4.080468982404376 66.86489331387477 0 0 -1
240 2 48.44117184125507 5.918499383864599 -4.998082068495467 0 0 0
177 2 46.57031527881846 2.1908105067775345 -6.86043485842072 0 0 0
181 2 -5.084430570992177 6.042121199814854 -6.848949175909167 0 0 0
184 2 -3.1692892648539823 5.923037976170168 -5.00213238035736 0 0 0
187 2 -1.473845543013704 7.685616112328123 -5.0345103373386255 0 0 0
183 2 -5.142906960320942 7.829045437948503 -4.976007021887064 0 0 0
182 2 -3.2363013520429167 7.816392762932455 -6.844074659421828 0 0 0
185 2 -1.503821718171407 6.011915065960576 66.81610456469441 0 0 -1
188 2 0.3940471173783733 5.942962491591551 -5.06868317989251 0 0 0
186 2 0.3540893929586453 7.764878344067036 66.78452927108742 0 0 -1
249 2 2.3307045991901916 9.549937209117138 -6.754405003842138 0 0 0
245 2 -1.4268522802137946 9.623345248829311 -6.805779226038779 0 0 0
189 2 2.218358392869395 6.016752380712271 66.64749313572145 0 0 -1
191 2 2.030399359348869 7.66568914521922 -5.058733106658075 0 0 0
190 2 3.991680736192251 7.706179129125383 -6.8023114450764774 0 0 0
252 2 4.012531239421262 9.47699358110895 -5.094980948703493 0 0 0
193 2 5.833173418818266 5.834964268440109 66.79161021537006 0 0 -1
195 2 5.763940168580781 7.639048970529993 -5.098616050965717 0 0 0
196 2 7.631631122332276 5.796574795297829 -5.115327924232423 0 0 0
256 2 7.869656415272729 9.600998069472496 -5.0367445213879805 0 0 0
200 2 11.40238658995295 5.892217134363895 -5.069096536171376 0 0 0
199 2 9.580499850930025 7.808943753244419 -5.1435140748196675 0 0 0
203 2 13.160576599196986 7.956845264343899 -5.092675875703028 0 0 0
260 2 11.410956488800071 9.681137232315265 -4.987059830677014 0 0 0
1102 2 15.088331381442416 7.860123258700334 -3.051824522716865 0 0 0
207 2 16.914945344578427 7.8310144473469006 -5.028156800096378 0 0 0
268 2 18.841248038241115 9.50558392377837 -5.066875119405384 0 0 0
1106 2 18.860475992358484 7.736070121197214 -3.2129372432801038 0 0 0
1109 2 20.75093962390855 5.920596765028865 -3.219134532498279 0 0 0
211 2 20.71644148910855 7.881214518069177 -5.114812549053278 0 0 0
212 2 22.50098991450181 6.210897532802825 -5.035968557456666 0 0 0
210 2 22.46342106201098 7.917360732518262 66.79881081419445 0 0 -1
216 2 26.120475489279542 5.891162347537383 -5.001424791556737 0 0 0
215 2 24.355367468467275 7.681760554254133 -5.198365128119558 0 0 0
219 2 28.00911556485692 7.780072946041237 -5.131874120502805 0 0 0
1118 2 29.912505085063273 7.555620537031494 -3.2635928213243 0 0 0
223 2 31.568425761618293 7.72263050878318 -5.1675367009117235 0 0 0
227 2 35.423680973478085 7.7195443587004355 -5.074097948424686 0 0 0
228 2 37.18097938775919 5.9759690189422034 -5.098367030005671 0 0 0
288 2 37.26886233206975 9.563508464165336 -4.952309944040286 0 0 0
231 2 39.05603139613323 7.832042788741715 -5.1001296065291895 0 0 0
289 2 38.96790261522581 9.423865958587376 -6.779638231402259 0 0 0
225 2 35.138460478605786 6.0114438082072095 66.82264538683562 0 0 -1
226 2 36.98970622509076 7.712042411645802 66.86456232607526 0 0 -1
232 2 41.00754388818251 5.856617770248288 -5.004730950463637 0 0 0
229 2 39.10892682991643 5.811627574825492 -6.757442013275675 0 0 0
230 1 40.99090458816282 7.69982080364324 66.85969563859243 0 0 -1
236 2 44.876639083573885 5.805028843012586 -4.902205222816409 0 0 0
235 2 42.999912705295536 7.83423232068632 -5.030152707463952 0 0 0
234 2 44.65823323248749 7.722099754542491 -6.853537981743926 0 0 0
296 2 44.7335998868975 9.619504626060783 -4.9107321153251124 0 0 0
297 2 46.36485763936167 9.614940810468335 66.74277739603352 0 0 -1
233 2 42.89077186336052 5.99387669780919 66.85336019498575 0 0 -1
239 2 46.54320596883253 7.720470879878224 -4.948659241459953 0 0 0
238 2 48.279408681363996 7.767234622985525 -6.796567093608481 0 0 0
244 2 -3.2254783590597995 9.606811285003587 -5.050878322204844 0 0 0
242 2 -3.254173105323503 11.441333720387608 -6.719086311890965 0 0 0
304 2 -3.399422470616493 13.453451943396477 -4.965122322253663 0 0 0
243 2 -5.005777727563729 11.390445078702953 -4.868466525133173 0 0 0
248 2 0.29630075481921914 9.61696652688083 -5.021293954314183 0 0 0
247 2 -1.4818580846165528 11.390923769313911 -5.025459483608259 0 0 0
246 2 0.3738403096496281 11.450861413779489 -6.77576265444684 0 0 0
251 2 2.3195637528031785 11.345288311346767 -5.030709688048723 0 0 0
250 2 3.962685615353946 11.401487358583918 -6.714491788415119 0 0 0
255 1 5.856551387669665 11.3524091368857 -5.027184359795919 0 0 0
259 2 9.650753690580789 11.50961427307162 -5.000903873654304 0 0 0
1154 2 7.873359848069864 11.47101733123056 -3.2242778883973386 0 0 0
263 2 13.152062702032595 11.421579469548444 -5.094127277270146 0 0 0
1157 2 9.573318308807298 9.552758440422743 -3.125069335504821 0 0 0
264 2 15.025174893389263 9.638242790648432 -4.9997190846087545 0 0 0
324 2 15.239458321596572 13.345408241646247 -5.016265335209422 0 0 0
1165 2 16.900056475832407 9.665505276696697 -3.2631047858251514 0 0 0
267 2 16.94244638166033 11.556047584072132 -5.105114546235007 0 0 0
266 2 18.780302186078497 11.409818243332268 -6.7725514735112435 0 0 0
271 2 20.638418709196163 11.363920586147483 -4.976476933256839 0 0 0
1166 2 18.729999221847418 11.414875069951723 -3.2630000006981392 0 0 0
272 2 22.70093983642923 9.455372288772667 -4.896498040987625 0 0 0
270 2 22.534833099245038 11.35204499219488 66.84492065515322 0 0 -1
269 2 20.539457356597843 9.6904895452701 66.84635666089846 0 0 -1
276 2 26.132843588849614 9.64150948988101 -5.045983818823077 0 0 0
275 2 24.226628041852273 11.401994600047999 -5.0474030181160625 0 0 0
336 2 26.28938614793058 13.247094460904641 -4.927142148482851 0 0 0
280 2 29.898707495665633 9.632827336333673 -5.1013566326744035 0 0 0
279 2 28.033731602283076 11.28488345684233 -4.917007121609629 0 0 0
283 2 31.69697632796906 11.522820170838191 -5.0585601486269525 0 0 0
278 2 29.974412782215957 11.347626634594473 66.85930449743302 0 0 -1
284 1 33.52344142389021 9.478495933081751 -4.9840321631265905 0 0 0
287 1 35.39930159473844 11.487781607077057 -5.037641411362089 0 0 0
291 2 39.01309765715665 11.342150412755402 -4.942310918595307 0 0 0
286 2 37.30752781147683 11.47569866863472 -6.844280429960379 0 0 0
292 2 40.99813692608742 9.540648172409375 -5.11487797661086 0 0 0
295 2 42.88802902244004 11.287489440302679 -4.95485859710323 0 0 0
353 2 43.03744229648703 13.258598184421512 66.85232878750767 0 0 -1
293 2 42.92706970634934 9.460567632476979 66.7466811270827 0 0 -1
356 2 44.82454540783651 13.35906346455289 -4.887031756437816 0 0 0
294 2 44.755850640202 11.652078407827798 -6.7820221584443185 0 0 0
300 2 48.32659494282954 9.446291509190369 -4.989784077979322 0 0 0
299 2 46.497448128063915 11.291061712394097 -4.946582975116858 0 0 0
302 2 -3.188360084483711 15.195644694489634 -6.840692794055425 0 0 0
303 2 -5.0465482331852956 15.202220754671288 -5.056596856381768 0 0 0
361 2 50.04045033521018 16.97056789940474 -6.695606346315434 -1 0 0
305 2 -1.4680933637769544 13.397378874314402 -6.796727984708083 0 0 0
307 2 -1.557504343151646 15.118510552204647 -4.89365607320002 0 0 0
308 2 0.2222766696617393 13.413261041235462 -5.112931528194082 0 0 0
309 2 2.1442793180841804 13.331100672815158 -6.726369170101946 0 0 0
311 2 2.213679833172738 15.087457165234103 -4.948478888389421 0 0 0
312 2 3.9298264702850894 13.37360262548794 -4.99673599644607 0 0 0
310 2 4.086938814520263 15.083280240544923 66.85905698624124 0 0 -1
316 2 7.809936709476132 13.397796256361222 -5.0131632930966985 0 0 0
315 2 5.847835594019722 15.175098176699887 -5.04403121991043 0 0 0
376 2 7.602413582715858 16.8951700154088 -4.913658803755375 0 0 0
317 2 9.572572188272176 13.350380715619849 66.85681190245771 0 0 -1
377 2 9.440644219811707 17.031824709257638 -6.862069075049669 0 0 0
319 2 9.49507128787278 15.19084150217082 -4.894441307192983 0 0 0
320 1 11.342781153242026 13.33661222373929 -4.90936627904254 0 0 0
380 2 11.311254078387147 16.982768649685926 -4.788688298632026 0 0 0
323 1 13.310497552646392 15.071545794571623 -4.911892604873984 0 0 0
327 2 16.959583430716027 15.21410816094879 -4.975718561333254 0 0 0
385 2 16.85657548192105 16.959950964497136 -6.788107233904228 0 0 0
384 2 15.193972221376633 17.017027924193332 -4.86834094688774 0 0 0
325 2 17.006345667395934 13.397912831037502 -6.851613378343484 0 0 0
328 2 18.82052172344692 13.199890454880073 -5.005530794848946 0 0 0
331 2 20.713103511272177 15.06098540743234 -5.035010735223408 0 0 0
388 2 18.820542691616197 16.99468648460785 -5.0642985034589545 0 0 0
329 2 20.46400625785694 13.217991221477515 66.80714371698234 0 0 -1
332 2 22.619685270410823 13.378946006047528 -4.971689933963699 0 0 0
330 2 22.37482208032903 15.129958471147873 -6.809823569213315 0 0 0
335 2 24.300915783883706 15.294108243199325 -5.048550062861313 0 0 0
337 2 28.064844109226165 13.233789145853159 -6.812846583157046 0 0 0
340 2 29.934156082590462 13.202575945057262 -5.009309022480945 0 0 0
339 2 28.049742574417365 14.959363014280722 -5.00668903892102 0 0 0
338 2 29.969228519589052 15.07844302377745 -6.709894217829408 0 0 0
343 2 31.57711114395211 15.099023987362447 -5.054024798150227 0 0 0
344 2 33.41864261565428 13.319739467898554 -5.170240579430007 0 0 0
404 2 33.53501748379268 16.802828138509508 -5.123090458474245 0 0 0
347 2 35.31010050364035 15.201447135087239 -5.067352412750486 0 0 0
348 2 37.11538753741681 13.43876555845998 -5.074584115507015 0 0 0
351 2 39.14514144021674 15.097454067121568 -4.91392974226572 0 0 0
352 2 40.88981701579091 13.2098896480916 -4.947729964600024 0 0 0
355 1 42.74732175127272 15.043800555592146 -4.928161721648312 0 0 0
354 1 44.6155863770605 15.206942170883554 66.83137475321503 0 0 -1
359 2 46.52984515250343 15.163297483015995 -4.89120766222654 0 0 0
360 2 48.60354622873797 13.239177950095716 -4.8979885424283705 0 0 0
358 2 48.38029508454165 15.185575489750942 -6.780384792716759 0 0 0
417 2 46.59156299610634 17.006649093333333 -6.799350107694436 0 0 0
420 2 48.335500785368275 17.03316883951884 -4.88180358516167 0 0 0
357 2 46.47646906496223 13.377477528805372 -6.762988332563538 0 0 0
301 2 -5.016562789540728 13.239199711761167 -6.842265518583258 0 0 0
364 2 -3.4473320387515267 16.99486875214289 -4.766310774170918 0 0 0
363 2 50.105176345431126 18.85537108965322 -4.728443046375617 -1 0 0
424 2 -3.3145721095014506 20.791338482215444 -5.060566093944173 0 0 0
362 2 -3.463857739849482 18.769931747422447 -6.766405647144475 0 0 0
367 1 -1.5177645426814013 18.83400212435319 -4.849096319803447 0 0 0
368 1 0.3680084113643245 16.888927189475186 -4.889314049551439 0 0 0
372 2 3.9748465695146873 16.90260179284234 -4.9888829696435355 0 0 0
371 2 2.195451402385448 18.842111445160054 -4.990306483590668 0 0 0
432 2 3.9528546259171478 20.696846524145503 -4.985029975767242 0 0 0
370 2 4.015439481367347 18.80087697583861 -6.774435306678206 0 0 0
433 2 5.833004380604445 20.767295523553056 -6.7585221641542645 0 0 0
375 2 5.757675441153424 18.92259872395722 -4.975693089040064 0 0 0
379 1 9.493199656490415 18.83015649064859 -4.974093157814879 0 0 0
378 1 11.423479484993216 18.63788703135292 -6.777871496473254 0 0 0
383 2 13.208097721232136 18.838173270688923 -4.913028805804558 0 0 0
382 2 15.029355802289857 18.817873113188703 -6.767513531997514 0 0 0
387 2 16.936269970034388 18.884866159805718 -4.973401854898397 0 0 0
448 1 18.860504532910042 20.73007123984112 -5.065531635885436 0 0 0
391 2 20.79304013039692 18.7640872540813 -4.981729873755189 0 0 0
392 2 22.502469206528534 16.950561320630758 -4.872674242083779 0 0 0
389 2 20.514959946434544 16.990866144833277 -6.816121489103139 0 0 0
453 2 24.449201465453587 20.67932539854235 -6.818207737756339 0 0 0
395 2 24.11947936905792 18.83132124803384 -4.94781095361706 0 0 0
396 2 26.171600594220926 17.026213213189298 -4.983690402798045 0 0 0
399 2 28.33962541979747 18.991196191002782 -4.943618815225097 0 0 0
457 2 28.16759186901315 20.603217012474285 66.79402284141425 0 0 -1
394 1 26.2323156864685 18.80018875738064 -6.739479535936183 0 0 0
400 2 30.003036527372657 16.888510875276474 -4.905456982677798 0 0 0
403 2 31.75574500788442 18.709370784266504 -5.012166130492467 0 0 0
460 2 29.966479626095477 20.722645127422982 -5.1931139840450715 0 0 0
402 1 33.53977538004127 18.72548551809749 66.81403422680131 0 0 -1
407 2 35.51362586754741 18.74884456203339 -5.067898721318203 0 0 0
408 2 37.21088968421388 16.889072132932924 -5.190732092968968 0 0 0
411 2 38.902246559364755 18.770583744656726 -5.011489934323706 0 0 0
406 2 37.308954573538344 18.949272921226296 66.86459333262783 0 0 -1
412 1 41.03945457410718 17.094403145250308 -5.09473104126447 0 0 0
472 1 40.806001510372106 20.707555502052617 -5.021606963941259 0 0 0
416 2 44.60001849889593 17.13072285852385 -4.908222230604672 0 0 0
415 2 42.873230115189656 19.005381194508495 -4.953850018850319 0 0 0
419 2 46.28532301132087 18.890230360607447 -4.936194386691567 0 0 0
477 2 46.3379132975808 20.658986826317822 -6.685553264255045 0 0 0
422 2 -3.334645358077032 22.493845532191177 66.83673382609715 0 0 -1
484 2 -3.1130225546586225 24.246683548376275 -5.086463346490642 0 0 0
423 2 -5.1438057846760294 22.58502382601756 -4.998426025151089 0 0 0
421 2 -5.084761859751908 20.838980400528797 66.85903363316729 0 0 -1
427 2 -1.4371678144130864 22.545863829984626 -5.171928532458541 0 0 0
425 2 -1.3518029094646837 20.767943382545397 -6.805765893801118 0 0 0
428 2 0.34074892875689944 20.75507098160027 -4.865004373787788 0 0 0
426 2 0.45375599781406084 22.60479630644281 66.84266623495964 0 0 -1
488 2 0.4250700107732488 24.328025035593555 -4.905064749213044 0 0 0
485 2 -1.4041411173158398 24.385362278965815 66.85062169245631 0 0 -1
431 2 2.130139368877204 22.594163622687663 -5.0397815125776395 0 0 0
430 2 3.883667275301514 22.508689461443886 -6.630449633102288 0 0 0
435 2 5.9133933576343765 22.561844664413382 -5.0238719523640425 0 0 0
429 2 2.0941149403385655 20.679333512916497 -6.753295843399644 0 0 0
436 2 7.671990670750711 20.77239149440736 -5.0085042329405285 0 0 0
434 2 7.632263697225303 22.658227847651048 66.85113422572209 0 0 -1
439 2 9.687823846371225 22.59785529769884 -5.168054540357943 0 0 0
440 2 11.511928408112443 20.64045781498569 -4.986383784630757 0 0 0
443 2 13.227488720092225 22.48228469516615 -4.963606701354195 0 0 0
441 2 13.336939877173272 20.611002709908817 -6.760257340509371 0 0 0
444 2 15.17835002171266 20.60395923437712 -5.074085980937167 0 0 0
447 2 16.86383453862847 22.41968291078702 -5.133525385851553 0 0 0
442 2 14.947346535842513 22.36334484190004 66.7930919026819 0 0 -1
508 2 18.76322747330014 24.194925373940393 -5.0225365136740985 0 0 0
451 2 20.535963661896844 22.677812924610933 -5.034807016019339 0 0 0
446 2 18.656561976140644 22.560996614974343 66.64478991400149 0 0 -1
452 2 22.54425820520432 20.65085442207309 -5.016101051919232 0 0 0
450 1 22.482283105512295 22.470683873208053 -6.852952414178278 0 0 0
455 2 24.546733170230272 22.474468794721382 -5.0624153171892585 0 0 0
456 2 26.32676833223626 20.61035088545687 -5.037913487776212 0 0 0
516 2 26.282845752845155 24.203714485956176 -5.0234084793189595 0 0 0
454 2 26.31048935938537 22.455338238493802 66.71377012570854 0 0 -1
459 2 27.988671355877976 22.4427486471984 -5.115458134468852 0 0 0
458 2 29.750733664094057 22.601095667306126 -6.82369455852921 0 0 0
520 2 29.860336093486893 24.273202824611303 -4.9591894587765095 0 0 0
463 2 31.847188652646594 22.543298264110476 -5.136517836247478 0 0 0
464 2 33.66406973939859 20.825603860539562 -5.092059596800389 0 0 0
462 2 33.596647177525966 22.626518112448725 66.77961176632888 0 0 -1
467 2 35.47370595970703 22.569896916401344 -5.171633927917037 0 0 0
468 2 37.26417580311815 20.886267029867085 -5.059570849707822 0 0 0
528 2 37.204261663697935 24.471555397479186 -4.997079185997832 0 0 0
471 2 39.13157396595574 22.702227033130715 -5.001168848569577 0 0 0
475 2 42.70175975855188 22.458948112919238 -4.957801787584945 0 0 0
532 2 40.97501666431976 24.332888108311764 -4.956834784000918 0 0 0
476 2 44.591408010539084 20.708365192336018 -4.891578040173183 0 0 0
536 1 44.554846845259334 24.367065227499406 -4.916900950253828 0 0 0
480 2 48.30132123932233 20.86082476302485 -4.925483220898867 0 0 0
479 2 46.56924241665746 22.61604543455675 -4.81137281678445 0 0 0
540 2 48.1336096735139 24.40598362157874 -4.740038215359423 0 0 0
537 2 46.40257923802464 24.44553604148488 -6.813539319846404 0 0 0
544 2 -3.338045706336261 27.989727160962104 -5.073789703390307 0 0 0
483 2 50.11953627513519 26.06935256439943 -4.951020529815638 -1 0 0
487 1 -1.4307635094741555 26.24243076449691 -4.913734886243388 0 0 0
491 2 2.0034940617205947 26.315253106886473 -5.18358089758142 0 0 0
492 2 3.9041875093222895 24.461886377440855 -4.9954688526766 0 0 0
552 2 3.9753641050590485 28.04282867375761 -4.93374994880232 0 0 0
490 2 3.9626973300821593 26.23661738440674 -6.7821663078032275 0 0 0
495 2 5.717800549842117 26.3196080861574 -4.9795180429828925 0 0 0
496 2 7.624233550393155 24.584686811091462 -5.024964862758564 0 0 0
499 2 9.549598484755489 26.163838308802696 -5.029702078622737 0 0 0
1397 2 9.553316183307967 24.39313335740096 -3.1537624803949282 0 0 0
500 2 11.4922272210937 24.38165436627285 -5.023744857905981 0 0 0
503 2 13.194526365135012 26.185336062166062 -5.213437527984743 0 0 0
560 2 11.391828936533667 28.040017928209124 -4.948251170186207 0 0 0
504 2 15.026697555439853 24.362733008239218 -4.8892764286210175 0 0 0
564 1 15.024540460225925 27.981364749116658 -4.816706406688213 0 0 0
505 1 16.773472801622162 24.414556162273364 -6.846172679973051 0 0 0
507 2 16.954632418373276 26.114447318690303 -4.898234998263784 0 0 0
506 2 18.905845355230234 26.070877077005388 66.75140386990921 0 0 -1
509 2 20.64898646874705 24.226802193774297 66.67630783719264 0 0 -1
511 2 20.67675310166858 25.88727630586041 -5.184929559380654 0 0 0
512 2 22.39293629134496 24.171495240456945 -5.080276762623118 0 0 0
510 2 22.491384383610452 25.98351388493666 66.82129811773191 0 0 -1
513 2 24.506971549805517 24.28738857443457 66.80603881448738 0 0 -1
515 2 24.318496185851824 25.985666560432875 -5.146068524090529 0 0 0
576 2 26.006186554748115 28.062978627608125 -5.10027396496033 0 0 0
519 2 28.162177354035826 26.175233628973967 -4.87480254905548 0 0 0
580 2 29.852248026746466 27.93888108348056 -5.058946914466528 0 0 0
523 2 31.66374802185276 26.091707835486357 -5.060390696625784 0 0 0
518 2 29.87452413786267 26.137928071817655 -6.8103499052977945 0 0 0
521 2 31.640485157083056 24.386892095414396 -6.783619679440377 0 0 0
524 2 33.57746023574974 24.42044092380373 -5.137095359545304 0 0 0
584 1 33.634694234742646 27.998136486049397 -5.04224739158369 0 0 0
527 2 35.552213017337955 26.32703401203744 -5.036742660012468 0 0 0
531 1 39.1022203534857 26.388716037688937 -4.920393814385842 0 0 0
535 2 42.60436701848955 26.29422967088067 -4.817480423822158 0 0 0
596 2 44.53328980485682 27.923651759728834 -4.829182408160831 0 0 0
539 2 46.28525992987673 26.317724906610174 -4.981485203975044 0 0 0
600 1 48.404086506855776 28.025788539968538 -4.829266499450095 0 0 0
542 2 -3.126822387258957 29.98444471659448 66.75695026199472 0 0 -1
541 1 -5.013684323654255 27.917918338511164 66.76687045093108 0 0 -1
545 2 -1.4384435694900213 28.0504674530329 66.69252073516951 0 0 -1
548 2 0.3839679885328513 28.157008497373155 -5.138172593497508 0 0 0
547 2 -1.3585429381125365 29.953503826137684 -5.025043221923127 0 0 0
605 2 -1.461736943073313 31.634613573639214 -6.860568168208155 0 0 0
608 2 0.49738512288712045 31.70688385401506 -5.030886448288419 0 0 0
546 2 0.4637116753709032 29.95730017422673 66.7026085995458 0 0 -1
551 2 2.2441748062803732 29.873793187572915 -5.123251533956136 0 0 0
556 2 7.686383336956897 27.947848442752246 -5.171255979097309 0 0 0
555 2 5.871767074099893 29.85111340174044 -4.912119692641003 0 0 0
554 2 7.64280563656469 29.856445794737525 -6.856562845236208 0 0 0
559 2 9.482260260268479 29.98086689986799 -4.953810767763665 0 0 0