 # Fcc Al oriented X=[100] Y=[010] Z=[001].
 
       18000  atoms
           2  atom types
 
      0.000000000000      45.000000000000  xlo xhi
      0.000000000000      45.000000000000  ylo yhi
      0.000000000000      60.000000000000  zlo zhi
 
Masses
 
            1   63.54600000             # Cu
            2   26.98153860             # Al
 
Atoms # atomic
 
         1    1        0.000000000000       0.000000000000       0.000000000000
         2    2        1.500000000000       1.500000000000       0.000000000000
         3    2        0.000000000000       1.500000000000       1.500000000000
         4    2        1.500000000000       0.000000000000       1.500000000000
         5    2        3.000000000000       0.000000000000       0.000000000000
         6    2        4.500000000000       1.500000000000       0.000000000000
         7    2        3.000000000000       1.500000000000       1.500000000000
         8    2        4.500000000000       0.000000000000       1.500000000000
         9    2        6.000000000000       0.000000000000       0.000000000000
        10    2        7.500000000000       1.500000000000       0.000000000000
        11    2        6.000000000000       1.500000000000       1.500000000000
        12    2        7.500000000000       0.000000000000       1.500000000000
        13    2        9.000000000000       0.000000000000       0.000000000000
        14    2       10.500000000000       1.500000000000       0.000000000000
        15    2        9.000000000000       1.500000000000       1.500000000000
        16    2       10.500000000000       0.000000000000       1.500000000000
        17    2       12.000000000000       0.000000000000       0.000000000000
        18    2       13.500000000000       1.500000000000       0.000000000000
        19    1       12.000000000000       1.500000000000       1.500000000000
        20    2       13.500000000000       0.000000000000       1.500000000000
        21    2       15.000000000000       0.000000000000       0.000000000000
        22    2       16.500000000000       1.500000000000       0.000000000000
        23    2       15.000000000000       1.500000000000       1.500000000000
        24    2       16.500000000000       0.000000000000       1.500000000000
        25    2       18.000000000000       0.000000000000       0.000000000000
        26    2       19.500000000000       1.500000000000       0.000000000000
        27    2       18.000000000000       1.500000000000       1.500000000000
        28    2       19.500000000000       0.000000000000       1.500000000000
        29    2       21.000000000000       0.000000000000       0.000000000000
        30    1       22.500000000000       1.500000000000       0.000000000000
        31    2       21.000000000000       1.500000000000       1.500000000000
        32    2       22.500000000000       0.000000000000       1.500000000000
        33    1       24.000000000000       0.000000000000       0.000000000000
        34    2       25.500000000000       1.500000000000       0.000000000000
        35    2       24.000000000000       1.500000000000       1.500000000000
        36    1       25.500000000000       0.000000000000       1.500000000000
        37    2       27.000000000000       0.000000000000       0.000000000000
        38    2       28.500000000000       1.500000000000       0.000000000000
        39    2       27.000000000000       1.500000000000       1.500000000000
        40    2       28.500000000000       0.000000000000       1.500000000000
        41    2       30.000000000000       0.000000000000       0.000000000000
        42    2       31.500000000000       1.500000000000       0.000000000000
        43    2       30.000000000000       1.500000000000       1.500000000000
        44    2       31.500000000000       0.000000000000       1.500000000000
        45    2       33.000000000000       0.000000000000       0.000000000000
        46    2       34.500000000000       1.500000000000       0.000000000000
        47    2       33.000000000000       1.500000000000       1.500000000000
        48    2       34.500000000000       0.000000000000       1.500000000000
        49    2       36.000000000000       0.000000000000       0.000000000000
        50    2       37.500000000000       1.500000000000       0.000000000000
        51    2       36.000000000000       1.500000000000       1.500000000000
        52    2       37.500000000000       0.000000000000       1.500000000000
        53    2       39.000000000000       0.000000000000       0.000000000000
        54    2       40.500000000000       1.500000000000       0.000000000000
        55    2       39.000000000000       1.500000000000       1.500000000000
        56    1       40.500000000000       0.000000000000       1.500000000000
        57    2       42.000000000000       0.000000000000       0.000000000000
        58    2       43.500000000000       1.500000000000       0.000000000000
        59    2       42.000000000000       1.500000000000       1.500000000000
        60    2       43.500000000000       0.000000000000       1.500000000000
        61    2        0.000000000000       3.000000000000       0.000000000000
        62    2        1.500000000000       4.500000000000       0.000000000000
        63    2        0.000000000000       4.500000000000       1.500000000000
        64    2        1.500000000000       3.000000000000       1.500000000000
        65    2        3.000000000000       3.000000000000       0.000000000000
        66    2        4.500000000000       4.500000000000       0.000000000000
        67    2        3.000000000000       4.500000000000       1.500000000000
        68    2        4.500000000000       3.000000000000       1.500000000000
        69    2        6.000000000000       3.000000000000       0.000000000000
        70    2        7.500000000000       4.500000000000       0.000000000000
        71    2        6.000000000000       4.500000000000       1.500000000000
        72    2        7.500000000000       3.000000000000       1.500000000000
        73    2        9.000000000000       3.000000000000       0.000000000000
        74    2       10.500000000000       4.500000000000       0.000000000000
        75    2        9.000000000000       4.500000000000       1.500000000000
        76    2       10.500000000000       3.000000000000       1.500000000000
        77    2       12.000000000000       3.000000000000       0.000000000000
        78    2       13.500000000000       4.500000000000       0.000000000000
        79    2       12.000000000000       4.500000000000       1.500000000000
        80    2       13.500000000000       3.000000000000       1.500000000000
        81    2       15.000000000000       3.000000000000       0.000000000000
        82    2       16.500000000000       4.500000000000       0.000000000000
        83    2       15.000000000000       4.500000000000       1.500000000000
        84    2       16.500000000000       3.000000000000       1.500000000000
        85    2       18.000000000000       3.000000000000       0.000000000000
        86    2       19.500000000000       4.500000000000       0.000000000000
        87    2       18.000000000000       4.500000000000       1.500000000000
        88    2       19.500000000000       3.000000000000       1.500000000000
        89    2       21.000000000000       3.000000000000       0.000000000000
        90    2       22.500000000000       4.500000000000       0.000000000000
        91    2       21.000000000000       4.500000000000       1.500000000000
        92    2       22.500000000000       3.000000000000       1.500000000000
        93    2       24.000000000000       3.000000000000       0.000000000000
        94    2       25.500000000000       4.500000000000       0.000000000000
        95    2       24.000000000000       4.500000000000       1.500000000000
        96    2       25.500000000000       3.000000000000       1.500000000000
        97    2       27.000000000000       3.000000000000       0.000000000000
        98    2       28.500000000000       4.500000000000       0.000000000000
        99    2       27.000000000000       4.500000000000       1.500000000000
       100    2       28.500000000000       3.000000000000       1.500000000000
       101    2       30.000000000000       3.000000000000       0.000000000000
       102    2       31.500000000000       4.500000000000       0.000000000000
       103    2       30.000000000000       4.500000000000       1.500000000000
       104    1       31.500000000000       3.000000000000       1.500000000000
       105    2       33.000000000000       3.000000000000       0.000000000000
       106    2       34.500000000000       4.500000000000       0.000000000000
       107    2       33.000000000000       4.500000000000       1.500000000000
       108    2       34.500000000000       3.000000000000       1.500000000000
       109    2       36.000000000000       3.000000000000       0.000000000000
       110    2       37.500000000000       4.500000000000       0.000000000000
       111    2       36.000000000000       4.500000000000       1.500000000000
       112    2       37.500000000000       3.000000000000       1.500000000000
       113    2       39.000000000000       3.000000000000       0.000000000000
       114    2       40.500000000000       4.500000000000       0.000000000000
       115    1       39.000000000000       4.500000000000       1.500000000000
       116    2       40.500000000000       3.000000000000       1.500000000000
       117    2       42.000000000000       3.000000000000       0.000000000000
       118    2       43.500000000000       4.500000000000       0.000000000000
       119    2       42.000000000000       4.500000000000       1.500000000000
       120    2       43.500000000000       3.000000000000       1.500000000000
       121    2        0.000000000000       6.000000000000       0.000000000000
       122    2        1.500000000000       7.500000000000       0.000000000000
       123    2        0.000000000000       7.500000000000       1.500000000000
       124    1        1.500000000000       6.000000000000       1.500000000000
       125    2        3.000000000000       6.000000000000       0.000000000000
       126    2        4.500000000000       7.500000000000       0.000000000000
       127    2        3.000000000000       7.500000000000       1.500000000000
       128    1        4.500000000000       6.000000000000       1.500000000000
       129    2        6.000000000000       6.000000000000       0.000000000000
       130    2        7.500000000000       7.500000000000       0.000000000000
       131    2        6.000000000000       7.500000000000       1.500000000000
       132    2        7.500000000000       6.000000000000       1.500000000000
       133    2        9.000000000000       6.000000000000       0.000000000000
       134    2       10.500000000000       7.500000000000       0.000000000000
       135    2        9.000000000000       7.500000000000       1.500000000000
       136    2       10.500000000000       6.000000000000       1.500000000000
       137    2       12.000000000000       6.000000000000       0.000000000000
       138    2       13.500000000000       7.500000000000       0.000000000000
       139    2       12.000000000000       7.500000000000       1.500000000000
       140    2       13.500000000000       6.000000000000       1.500000000000
       141    2       15.000000000000       6.000000000000       0.000000000000
       142    2       16.500000000000       7.500000000000       0.000000000000
       143    2       15.000000000000       7.500000000000       1.500000000000
       144    2       16.500000000000       6.000000000000       1.500000000000
       145    2       18.000000000000       6.000000000000       0.000000000000
       146    2       19.500000000000       7.500000000000       0.000000000000
       147    1       18.000000000000       7.500000000000       1.500000000000
       148    1       19.500000000000       6.000000000000       1.500000000000
       149    2       21.000000000000       6.000000000000       0.000000000000
       150    2       22.500000000000       7.500000000000       0.000000000000
       151    2       21.000000000000       7.500000000000       1.500000000000
       152    2       22.500000000000       6.000000000000       1.500000000000
       153    2       24.000000000000       6.000000000000       0.000000000000
       154    1       25.500000000000       7.500000000000       0.000000000000
       155    1       24.000000000000       7.500000000000       1.500000000000
       156    1       25.500000000000       6.000000000000       1.500000000000
       157    2       27.000000000000       6.000000000000       0.000000000000
       158    2       28.500000000000       7.500000000000       0.000000000000
       159    2       27.000000000000       7.500000000000       1.500000000000
       160    2       28.500000000000       6.000000000000       1.500000000000
       161    2       30.000000000000       6.000000000000       0.000000000000
       162    2       31.500000000000       7.500000000000       0.000000000000
       163    2       30.000000000000       7.500000000000       1.500000000000
       164    2       31.500000000000       6.000000000000       1.500000000000
       165    2       33.000000000000       6.000000000000       0.000000000000
       166    2       34.500000000000       7.500000000000       0.000000000000
       167    2       33.000000000000       7.500000000000       1.500000000000
       168    2       34.500000000000       6.000000000000       1.500000000000
       169    2       36.000000000000       6.000000000000       0.000000000000
       170    2       37.500000000000       7.500000000000       0.000000000000
       171    2       36.000000000000       7.500000000000       1.500000000000
       172    2       37.500000000000       6.000000000000       1.500000000000
       173    2       39.000000000000       6.000000000000       0.000000000000
       174    2       40.500000000000       7.500000000000       0.000000000000
       175    1       39.000000000000       7.500000000000       1.500000000000
       176    2       40.500000000000       6.000000000000       1.500000000000
       177    2       42.000000000000       6.000000000000       0.000000000000
       178    2       43.500000000000       7.500000000000       0.000000000000
       179    2       42.000000000000       7.500000000000       1.500000000000
       180    2       43.500000000000       6.000000000000       1.500000000000
       181    2        0.000000000000       9.000000000000       0.000000000000
       182    2        1.500000000000      10.500000000000       0.000000000000
       183    2        0.000000000000      10.500000000000       1.500000000000
       184    2        1.500000000000       9.000000000000       1.500000000000
       185    2        3.000000000000       9.000000000000       0.000000000000
       186    2        4.500000000000      10.500000000000       0.000000000000
       187    2        3.000000000000      10.500000000000       1.500000000000
       188    2        4.500000000000       9.000000000000       1.500000000000
       189    2        6.000000000000       9.000000000000       0.000000000000
       190    2        7.500000000000      10.500000000000       0.000000000000
       191    2        6.000000000000      10.500000000000       1.500000000000
       192    2        7.500000000000       9.000000000000       1.500000000000
       193    2        9.000000000000       9.000000000000       0.000000000000
       194    2       10.500000000000      10.500000000000       0.000000000000
       195    2        9.000000000000      10.500000000000       1.500000000000
       196    2       10.500000000000       9.000000000000       1.500000000000
       197    2       12.000000000000       9.000000000000       0.000000000000
       198    2       13.500000000000      10.500000000000       0.000000000000
       199    2       12.000000000000      10.500000000000       1.500000000000
       200    2       13.500000000000       9.000000000000       1.500000000000
       201    2       15.000000000000       9.000000000000       0.000000000000
       202    2       16.500000000000      10.500000000000       0.000000000000
       203    2       15.000000000000      10.500000000000       1.500000000000
       204    1       16.500000000000       9.000000000000       1.500000000000
       205    2       18.000000000000       9.000000000000       0.000000000000
       206    2       19.500000000000      10.500000000000       0.000000000000
       207    2       18.000000000000      10.500000000000       1.500000000000
       208    2       19.500000000000       9.000000000000       1.500000000000
       209    1       21.000000000000       9.000000000000       0.000000000000
       210    2       22.500000000000      10.500000000000       0.000000000000
       211    2       21.000000000000      10.500000000000       1.500000000000
       212    2       22.500000000000       9.000000000000       1.500000000000
       213    2       24.000000000000       9.000000000000       0.000000000000
       214    2       25.500000000000      10.500000000000       0.000000000000
       215    2       24.000000000000      10.500000000000       1.500000000000
       216    2       25.500000000000       9.000000000000       1.500000000000
       217    2       27.000000000000       9.000000000000       0.000000000000
       218    2       28.500000000000      10.500000000000       0.000000000000
       219    2       27.000000000000      10.500000000000       1.500000000000
       220    2       28.500000000000       9.000000000000       1.500000000000
       221    2       30.000000000000       9.000000000000       0.000000000000
       222    2       31.500000000000      10.500000000000       0.000000000000
       223    2       30.000000000000      10.500000000000       1.500000000000
       224    2       31.500000000000       9.000000000000       1.500000000000
       225    2       33.000000000000       9.000000000000       0.000000000000
       226    2       34.500000000000      10.500000000000       0.000000000000
       227    2       33.000000000000      10.500000000000       1.500000000000
       228    2       34.500000000000       9.000000000000       1.500000000000
       229    2       36.000000000000       9.000000000000       0.000000000000
       230    1       37.500000000000      10.500000000000       0.000000000000
       231    2       36.000000000000      10.500000000000       1.500000000000
       232    2       37.500000000000       9.000000000000       1.500000000000
       233    2       39.000000000000       9.000000000000       0.000000000000
       234    2       40.500000000000      10.500000000000       0.000000000000
       235    2       39.000000000000      10.500000000000       1.500000000000
       236    2       40.500000000000       9.000000000000       1.500000000000
       237    2       42.000000000000       9.000000000000       0.000000000000
       238    2       43.500000000000      10.500000000000       0.000000000000
       239    2       42.000000000000      10.500000000000       1.500000000000
       240    2       43.500000000000       9.000000000000       1.500000000000
       241    2        0.000000000000      12.000000000000       0.000000000000
       242    2        1.500000000000      13.500000000000       0.000000000000
       243    2        0.000000000000      13.500000000000       1.500000000000
       244    2        1.500000000000      12.000000000000       1.500000000000
       245    2        3.000000000000      12.000000000000       0.000000000000
       246    2        4.500000000000      13.500000000000       0.000000000000
       247    2        3.000000000000      13.500000000000       1.500000000000
       248    2        4.500000000000      12.000000000000       1.500000000000
       249    2        6.000000000000      12.000000000000       0.000000000000
       250    2        7.500000000000      13.500000000000       0.000000000000
       251    2        6.000000000000      13.500000000000       1.500000000000
       252    2        7.500000000000      12.000000000000       1.500000000000
       253    2        9.000000000000      12.000000000000       0.000000000000
       254    2       10.500000000000      13.500000000000       0.000000000000
       255    1        9.000000000000      13.500000000000       1.500000000000
       256    2       10.500000000000      12.000000000000       1.500000000000
       257    2       12.000000000000      12.000000000000       0.000000000000
       258    2       13.500000000000      13.500000000000       0.000000000000
       259    2       12.000000000000      13.500000000000       1.500000000000
       260    2       13.500000000000      12.000000000000       1.500000000000
       261    2       15.000000000000      12.000000000000       0.000000000000
       262    2       16.500000000000      13.500000000000       0.000000000000
       263    2       15.000000000000      13.500000000000       1.500000000000
       264    2       16.500000000000      12.000000000000       1.500000000000
       265    2       18.000000000000      12.000000000000       0.000000000000
       266    2       19.500000000000      13.500000000000       0.000000000000
       267    2       18.000000000000      13.500000000000       1.500000000000
       268    2       19.500000000000      12.000000000000       1.500000000000
       269    2       21.000000000000      12.000000000000       0.000000000000
       270    2       22.500000000000      13.500000000000       0.000000000000
       271    2       21.000000000000      13.500000000000       1.500000000000
       272    2       22.500000000000      12.000000000000       1.500000000000
       273    2       24.000000000000      12.000000000000       0.000000000000
       274    2       25.500000000000      13.500000000000       0.000000000000
       275    2       24.000000000000      13.500000000000       1.500000000000
       276    2       25.500000000000      12.000000000000       1.500000000000
       277    2       27.000000000000      12.000000000000       0.000000000000
       278    2       28.500000000000      13.500000000000       0.000000000000
       279    2       27.000000000000      13.500000000000       1.500000000000
       280    2       28.500000000000      12.000000000000       1.500000000000
       281    2       30.000000000000      12.000000000000       0.000000000000
       282    2       31.500000000000      13.500000000000       0.000000000000
       283    2       30.000000000000      13.500000000000       1.500000000000
       284    1       31.500000000000      12.000000000000       1.500000000000
       285    2       33.000000000000      12.000000000000       0.000000000000
       286    2       34.500000000000      13.500000000000       0.000000000000
       287    1       33.000000000000      13.500000000000       1.500000000000
       288    2       34.500000000000      12.000000000000       1.500000000000
       289    2       36.000000000000      12.000000000000       0.000000000000
       290    1       37.500000000000      13.500000000000       0.000000000000
       291    2       36.000000000000      13.500000000000       1.500000000000
       292    2       37.500000000000      12.000000000000       1.500000000000
       293    2       39.000000000000      12.000000000000       0.000000000000
       294    2       40.500000000000      13.500000000000       0.000000000000
       295    2       39.000000000000      13.500000000000       1.500000000000
       296    2       40.500000000000      12.000000000000       1.500000000000
       297    2       42.000000000000      12.000000000000       0.000000000000
       298    1       43.500000000000      13.500000000000       0.000000000000
       299    2       42.000000000000      13.500000000000       1.500000000000
       300    2       43.500000000000      12.000000000000       1.500000000000
       301    2        0.000000000000      15.000000000000       0.000000000000
       302    2        1.500000000000      16.500000000000       0.000000000000
       303    2        0.000000000000      16.500000000000       1.500000000000
       304    2        1.500000000000      15.000000000000       1.500000000000
       305    2        3.000000000000      15.000000000000       0.000000000000
       306    2        4.500000000000      16.500000000000       0.000000000000
       307    2        3.000000000000      16.500000000000       1.500000000000
       308    2        4.500000000000      15.000000000000       1.500000000000
       309    2        6.000000000000      15.000000000000       0.000000000000
       310    2        7.500000000000      16.500000000000       0.000000000000
       311    2        6.000000000000      16.500000000000       1.500000000000
       312    2        7.500000000000      15.000000000000       1.500000000000
       313    2        9.000000000000      15.000000000000       0.000000000000
       314    2       10.500000000000      16.500000000000       0.000000000000
       315    2        9.000000000000      16.500000000000       1.500000000000
       316    2       10.500000000000      15.000000000000       1.500000000000
       317    2       12.000000000000      15.000000000000       0.000000000000
       318    1       13.500000000000      16.500000000000       0.000000000000
       319    2       12.000000000000      16.500000000000       1.500000000000
       320    1       13.500000000000      15.000000000000       1.500000000000
       321    2       15.000000000000      15.000000000000       0.000000000000
       322    2       16.500000000000      16.500000000000       0.000000000000
       323    1       15.000000000000      16.500000000000       1.500000000000
       324    2       16.500000000000      15.000000000000       1.500000000000
       325    2       18.000000000000      15.000000000000       0.000000000000
       326    2       19.500000000000      16.500000000000       0.000000000000
       327    2       18.000000000000      16.500000000000       1.500000000000
       328    2       19.500000000000      15.000000000000       1.500000000000
       329    2       21.000000000000      15.000000000000       0.000000000000
       330    2       22.500000000000      16.500000000000       0.000000000000
       331    2       21.000000000000      16.500000000000       1.500000000000
       332    2       22.500000000000      15.000000000000       1.500000000000
       333    1       24.000000000000      15.000000000000       0.000000000000
       334    1       25.500000000000      16.500000000000       0.000000000000
       335    2       24.000000000000      16.500000000000       1.500000000000
       336    2       25.500000000000      15.000000000000       1.500000000000
       337    2       27.000000000000      15.000000000000       0.000000000000
       338    2       28.500000000000      16.500000000000       0.000000000000
       339    2       27.000000000000      16.500000000000       1.500000000000
       340    2       28.500000000000      15.000000000000       1.500000000000
       341    2       30.000000000000      15.000000000000       0.000000000000
       342    2       31.500000000000      16.500000000000       0.000000000000
       343    2       30.000000000000      16.500000000000       1.500000000000
       344    2       31.500000000000      15.000000000000       1.500000000000
       345    2       33.000000000000      15.000000000000       0.000000000000
       346    2       34.500000000000      16.500000000000       0.000000000000
       347    2       33.000000000000      16.500000000000       1.500000000000
       348    2       34.500000000000      15.000000000000       1.500000000000
       349    1       36.000000000000      15.000000000000       0.000000000000
       350    1       37.500000000000      16.500000000000       0.000000000000
       351    2       36.000000000000      16.500000000000       1.500000000000
       352    2       37.500000000000      15.000000000000       1.500000000000
       353    2       39.000000000000      15.000000000000       0.000000000000
       354    1       40.500000000000      16.500000000000       0.000000000000
       355    1       39.000000000000      16.500000000000       1.500000000000
       356    2       40.500000000000      15.000000000000       1.500000000000
       357    2       42.000000000000      15.000000000000       0.000000000000
       358    2       43.500000000000      16.500000000000       0.000000000000
       359    2       42.000000000000      16.500000000000       1.500000000000
       360    2       43.500000000000      15.000000000000       1.500000000000
       361    2        0.000000000000      18.000000000000       0.000000000000
       362    2        1.500000000000      19.500000000000       0.000000000000
       363    2        0.000000000000      19.500000000000       1.500000000000
       364    2        1.500000000000      18.000000000000       1.500000000000
       365    2        3.000000000000      18.000000000000       0.000000000000