ITEM: TIMESTEP
1500
ITEM: NUMBER OF ATOMS
18000
ITEM: BOX BOUNDS pp pp pp
-5.1567242161437328e+00 5.0156724216143800e+01
-5.1567242161437328e+00 5.0156724216143800e+01
-6.8756322881917384e+00 6.6875632288191497e+01
ITEM: ATOMS id type x y z
2 2 -3.40506 -3.47931 66.8896
64 2 -3.42882 -1.59399 -5.05456
5 2 -1.62915 -5.43646 66.8529
7 2 -1.5826 -3.42253 -5.10836
6 2 0.223755 -3.61153 -6.86588
8 2 0.39417 -5.3719 -4.98951
11 2 2.15037 -3.49049 -5.17318
9 2 2.35501 -5.21964 -6.80055
910 1 4.02752 -3.42824 -3.23158
12 2 4.16195 -5.26461 -4.93756
913 2 6.14076 50.0381 -3.21727
10 2 3.97294 -3.39973 -6.85922
15 2 5.94458 -3.4875 -5.02811
76 2 7.87957 -1.39749 -5.03194
914 2 7.749 -3.31506 -3.10406
19 1 9.64347 -3.40621 -4.90618
80 2 11.5018 -1.57112 -4.84612
23 2 13.1261 -3.39516 -4.86185
27 2 16.7713 -3.39592 -4.93469
31 2 20.3809 -3.45104 -5.07568
88 2 18.6861 -1.53624 -5.13019
28 2 18.5308 50.059 -4.97977
30 1 22.4741 -3.26465 -6.8252
92 2 22.6106 -1.44857 -4.92928
32 2 22.2669 50.317 -4.83541
35 2 24.3971 -3.18733 -5.01836
93 2 24.6607 -1.51994 -6.76866
36 1 26.3224 50.2615 -5.03382
39 2 28.2749 -3.2126 -5.08927
40 2 29.9395 -5.19129 -4.92882
100 2 30.1193 -1.43223 -5.11641
38 2 30.0072 -3.15766 -7.00061
43 2 31.7192 -3.48557 -5.06986
42 2 33.4782 -3.54079 -6.83614
44 2 33.6381 -5.12564 -4.89716
101 2 31.7865 -1.41688 -6.87321
104 1 33.6231 -1.53037 -4.91331
41 2 31.705 -5.15584 -6.91564
45 2 35.3902 -5.06609 -6.87782
47 2 35.468 -3.44862 -4.93424
46 2 37.2659 -3.36149 -6.75689
49 2 39.2566 50.2135 66.95
51 2 39.2436 -3.45846 -5.15428
108 2 37.2428 -1.56429 -5.16904
55 2 42.9576 -3.43923 -4.96367
50 2 41.2652 -3.44075 -6.82386
113 2 42.9664 -1.54526 66.8833
116 2 44.7045 -1.52334 -4.87356
59 2 46.4592 -3.2922 -4.98943
54 2 44.8469 -3.28539 -6.87969
117 2 46.4402 -1.40832 -6.765
3 2 50.0451 -3.47791 -4.97806
58 2 48.2309 -3.37328 66.9834
124 1 -3.22422 2.01482 -5.19195
125 2 -1.39799 1.79854 66.6793
61 2 50.1039 -1.60717 -6.95189
65 2 -1.47756 -1.71825 -6.94011
62 2 -3.25128 0.0388069 66.7598
68 2 0.231826 -1.68359 -4.99407
67 2 -1.52976 0.142859 -5.02747
69 2 2.05413 -1.68025 -6.90229
72 2 4.11194 -1.55109 -5.07482
71 2 2.14139 0.310681 -4.95472
973 2 6.04134 -1.37651 -3.28747
75 2 5.91186 0.476987 -5.04922
974 2 7.78055 0.302209 -3.04374
79 2 9.52332 0.4938 -4.97003
140 2 11.3846 2.29774 -4.86267
84 2 15.0642 -1.58667 -4.84917
83 2 13.3044 0.487861 -4.97047
144 2 15.0444 2.2718 -4.95741
87 2 16.9333 0.210994 -5.00538
91 2 20.8 0.450367 -4.87866
148 1 18.8828 2.20439 -5.09349
152 2 22.5723 2.21762 -4.84663
95 2 24.4921 0.186809 -5.08091
96 2 26.3601 -1.52937 -4.9843
94 2 26.3458 0.464099 67.0472
156 1 26.2698 2.21294 -4.9128
99 2 28.2212 0.51485 -4.95566
160 2 30.0987 2.41324 -4.95811
103 2 31.9947 0.436773 -5.14923
165 2 35.5195 2.25717 -6.80507
109 2 39.2013 -1.56358 -6.79985
107 2 35.5577 0.337245 -4.98437
106 2 37.3178 0.325966 -6.78738
111 2 39.1053 0.43112 -5.12947
112 2 41.0831 -1.58714 -5.00052
115 1 42.7625 0.426241 -4.78698
119 2 46.4459 0.367115 -5.01078
114 2 44.52 0.269094 67.0341
177 2 46.2718 2.19958 -6.82147
120 2 48.3353 -1.45231 -5.00362
63 2 50.1566 0.293715 -5.23963
118 2 48.191 0.603139 -6.76795
122 2 -3.42287 4.03925 -6.78851
127 2 -1.66182 4.0786 -4.86503
185 2 -1.52443 5.99593 -6.66419
128 1 0.219341 2.12763 -4.81265
132 2 4.02747 2.22568 -5.00752
131 2 2.16918 4.06947 -5.07728
135 2 5.93481 4.03662 -5.22432
192 2 4.03533 5.75691 -4.9485
1093 2 5.89119 5.71744 -3.37047
136 2 7.79575 2.25528 -5.00298
196 2 7.73388 5.74243 -5.12503
139 2 9.65067 4.05611 -4.98093
197 2 9.60802 5.81423 66.9843
200 2 11.5176 5.91854 -5.11316
138 2 11.4522 4.09879 -6.77713
143 2 13.2059 4.16372 -4.90069
147 1 16.969 4.14327 -5.06805
141 2 13.1288 2.2945 -6.69413
208 2 18.8327 6.00102 -5.14768
155 1 24.2967 4.22511 -4.83745
151 2 20.6767 4.1361 -4.89066
212 2 22.494 6.09659 -4.88592
216 2 26.358 5.98683 -4.93926
158 2 29.8994 4.34667 -6.76686
159 2 28.3217 4.16403 -4.82379
220 2 29.9219 6.06458 -5.00675
163 2 31.7725 4.26273 -4.99425
164 2 33.7915 2.25349 -4.99331
167 2 35.5191 4.25729 -5.05231
162 2 33.6592 4.22206 -6.74611
168 2 37.2458 2.29698 -5.11543
169 2 39.2074 2.2311 -6.66867
171 2 39.2868 4.08622 -5.13033
166 2 37.3824 4.20719 -6.88976
229 2 39.1964 5.83847 -6.82427
172 2 40.8649 2.29426 -4.92024
170 2 41.1303 4.08461 -6.86712
175 1 42.9707 4.20483 -4.93477
232 2 41.0376 5.99679 -4.87387
233 2 42.8597 6.01124 -6.81536
176 2 44.6207 2.03828 -4.85753
179 2 46.3343 3.99671 -4.94273
174 2 44.6826 4.23537 -6.8387
180 2 48.1134 2.16436 -5.04
123 2 49.9066 4.13934 -5.10508
182 2 -3.42752 7.85158 -6.78637
184 2 -3.3655 6.05521 -5.10937
187 2 -1.43588 7.84669 -5.09246
183 2 -5.27205 7.7236 -5.13859
188 2 0.220434 5.80837 -4.98206
248 2 0.2614 9.71427 -5.03802
186 2 0.386602 7.72892 -6.90353
191 2 2.05921 7.4998 -5.0254
252 2 4.1438 9.27942 -5.06346
195 2 6.11442 7.65857 -5.1666
256 2 7.74719 9.5406 -4.85562
199 2 9.53416 7.82057 -5.2572
203 2 13.3695 7.92728 -5.09311
260 2 11.6229 9.81352 -5.12867
204 1 15.0541 5.96841 -4.9644
264 2 15.1421 9.73442 -5.23362
207 2 16.9864 7.74063 -5.05043
206 2 18.7106 7.6452 -6.94188
265 2 16.9996 9.70786 66.8555
1165 2 16.9972 9.59711 -3.50334
211 2 20.5877 7.72974 -5.09602
1169 1 20.8185 9.54831 -3.24985
210 2 22.6378 7.75073 66.8255
215 2 24.3897 7.65172 -4.9623
217 2 28.2346 6.0194 -6.86197
219 2 28.1406 7.77738 -5.12189
223 2 31.6693 7.7416 -4.94599
280 2 29.8088 9.54406 -5.1378
224 2 33.6936 6.08472 -4.98638
225 2 35.4345 6.09816 -6.85535
227 2 35.5294 7.95893 -4.97209
284 1 33.5821 9.6373 -5.12785
228 2 37.2561 6.15756 -5.06555
231 2 39.1642 7.66658 -5.06159
288 2 37.3647 9.66896 -5.19293
1189 2 38.9455 9.59891 -3.22428
289 2 39.2658 9.51567 -6.91854
292 2 41.0378 9.61453 -4.99481
235 2 42.906 7.80583 -4.94327
236 2 44.785 6.03338 -4.8051
293 2 42.9507 9.64103 -6.78525
296 2 44.7407 9.66312 -5.00697
239 2 46.4328 7.87284 -4.9066
240 2 48.0149 6.075 -4.88851
300 2 48.1198 9.61991 -4.94534
1197 2 46.5232 9.84892 -3.13828
244 2 -3.35988 9.5565 -5.20398
304 2 -3.37562 13.2943 -5.12573
243 2 50.029 11.6248 -4.98373
247 2 -1.61542 11.5919 -5.08698
251 2 2.27403 11.5981 -5.01901
308 2 0.246323 13.3141 -4.9921
312 2 3.99806 13.4603 -4.94591
255 1 5.81401 11.3198 -4.8337
259 2 9.41331 11.4128 -4.75527
316 2 7.62694 13.3444 -4.84058
320 1 11.4493 13.2367 -4.94968
263 2 13.5034 11.4748 -5.18046
267 2 16.94 11.5296 -5.06949
324 2 15.2178 13.2771 -5.13305
266 2 18.8065 11.3764 66.8293
268 2 18.9184 9.48593 -5.1331
271 2 20.7311 11.4469 -5.10385
328 2 18.7529 13.3367 -5.13338
329 2 20.5874 13.3129 -6.84643
269 2 20.6989 9.53339 66.8955
270 2 22.5858 11.348 66.9381
272 2 22.662 9.58189 -5.13501
1170 2 22.5975 11.618 -3.48831
275 2 24.4172 11.3046 -5.11002
276 2 26.3118 9.6525 -5.03369
336 2 26.3526 13.2738 -5.02148
279 2 28.2067 11.6015 -5.01232
340 2 30.2164 13.0688 -4.8091
283 2 31.8787 11.5051 -5.11051
287 1 35.4511 11.5066 -5.05346
344 2 33.3953 13.283 -5.02814
345 2 35.2224 13.4804 66.9382
291 2 39.1171 11.6103 -5.01297
348 2 37.1247 13.4032 -5.15663
286 2 37.2515 11.3548 66.8119
349 1 39.0778 13.3844 66.932
352 2 41.1536 13.3381 -4.83944
290 1 41.096 11.5507 -6.75903
295 2 42.9631 11.4573 -4.91103
356 2 44.6801 13.4167 -4.81716
299 2 46.394 11.4977 -4.92252
360 2 48.2926 13.4683 -4.95015
303 2 50.2172 15.4406 -5.04505
364 2 -3.26943 17.0202 -4.97337
307 2 -1.48565 15.0803 -5.12516
368 1 0.23439 16.9417 -4.98811
311 2 2.15437 15.1693 -5.04128
372 2 3.91834 17.0864 -4.99834
315 2 5.81582 15.2653 -4.91227
376 2 7.64142 16.8552 -4.83811
1273 2 5.85955 16.9863 -3.17187
319 2 9.44738 15.1639 -4.92458
380 2 11.4339 16.8919 -4.93951
1277 2 9.73629 16.9568 -3.11898
323 1 13.3375 15.1156 -5.05025
327 2 16.9776 15.151 -5.08415
384 2 15.1971 17.005 -5.04313
385 2 17.0133 16.8634 -6.88301
331 2 20.5519 15.2012 -5.10562
326 2 18.7081 15.141 -6.82297
332 2 22.629 13.4396 -5.05186
335 2 24.4539 15.1598 -4.87794
330 2 22.4297 15.2087 -6.8763
334 1 26.3048 15.1124 -6.89027
1234 2 26.1801 15.0518 -3.0537
1233 2 24.3917 13.2387 -3.29623
339 2 28.2343 14.9637 -5.0423
343 2 31.7826 14.9643 -4.93138
347 2 35.1951 15.2619 -4.95298
405 2 35.174 17.0411 66.9625
351 2 38.9901 15.3878 -5.01891
408 2 37.0401 17.2792 -5.18899
409 2 38.9614 17.2657 66.8728
412 1 40.8824 17.1793 -5.10583
350 1 41.0561 15.2525 66.9212
355 1 42.8644 15.3349 -4.91858
416 2 44.6063 17.2963 -5.06229
417 2 46.4307 17.1474 66.9499
358 2 48.2454 15.4868 67.0717
359 2 46.4038 15.3581 -4.90945
420 2 48.4805 17.3162 -4.90025
363 2 -5.05886 19.0039 -5.04574
367 1 -1.59394 18.907 -5.16615
1321 2 -4.98766 20.8223 -3.15704
428 2 0.50008 20.796 -5.06149
1329 2 2.11445 20.6489 -3.33206
371 2 2.0742 18.9087 -5.18115
432 2 4.05362 20.6389 -5.1705
1270 2 3.88108 18.8459 -3.24083
375 2 5.99815 18.7836 -4.85083
436 2 7.65972 20.6092 -5.03187
1274 2 7.70345 18.714 -3.0173
1333 2 5.94246 20.6291 -3.18716
1337 2 9.54709 20.6938 -3.20418
379 1 9.46334 18.7431 -4.93086
1278 2 11.5302 18.7511 -3.21057
383 2 13.2061 18.6882 -5.04666
382 2 15.064 18.8093 -6.85191
387 2 16.9607 18.7573 -5.15387
388 2 18.8056 17.0684 -5.09095
389 2 20.5207 16.9631 -6.89805
391 2 20.7051 18.6549 -5.178
386 2 18.8211 18.8098 66.7133
392 2 22.4818 16.9262 -5.05004
395 2 24.2179 18.9253 -5.09929
393 2 24.3748 16.9227 -6.8921
396 2 26.1421 16.9961 -5.02373
394 1 26.2411 18.9066 66.9797
1294 2 26.011 18.8686 -3.23216
397 1 28.2291 16.9681 -6.65391
400 2 30.1867 16.8572 -4.82954
1297 1 28.0311 17.0107 -3.27462
399 2 27.9756 19.1237 -4.88797
404 2 33.2797 17.0152 -4.96987
403 2 31.5415 18.9332 -4.97412
407 2 35.2485 19.0431 -5.14224
1365 2 35.5885 20.7634 -3.45239
468 2 37.2093 20.7771 -5.31451
411 2 38.9959 19.1328 -5.09741
472 1 40.7594 20.8317 -5.2737
410 2 40.8485 19.0012 66.7289
415 2 42.6489 18.9978 -5.12472
419 2 46.4615 19.0967 -5.09079
477 2 46.6261 20.7675 66.9167
418 1 48.3902 18.9356 66.7945
480 2 48.3696 20.9153 -4.92167
424 2 -3.39387 20.8196 -5.01663
1322 2 -3.06431 22.5483 -3.2482
484 2 -3.3054 24.1344 -4.91174
1381 2 50.1877 24.3243 -3.0596
427 2 -1.38093 22.5845 -5.24565
431 2 2.20242 22.5938 -5.19108
488 2 0.577971 24.3159 -5.2166
430 2 3.99959 22.5074 66.8172
492 2 4.05934 24.2927 -5.2016
493 2 5.92705 24.316 66.7847
435 2 6.06662 22.4937 -5.14897
496 2 7.7507 24.2954 -5.05056
440 2 11.4473 20.6345 -5.03169
1341 2 13.2344 20.6553 -3.24261
443 2 13.3003 22.5093 -5.093
439 2 9.62039 22.3628 -4.98433
444 2 14.9434 20.7083 -5.08193
447 2 16.8467 22.6232 -4.98807
445 2 16.8445 20.9049 66.9377
448 1 18.8265 20.6354 -5.08743
451 2 20.7047 22.5095 -5.1027
446 2 18.8294 22.6094 66.9531
452 2 22.3884 20.659 -5.1256
453 2 24.4639 20.8387 66.867
455 2 24.3841 22.6146 -5.14651
456 2 26.1076 20.7971 -4.92781
1353 2 24.1129 20.6492 -3.22156
1354 2 26.1022 22.5824 -3.13298
460 2 29.7186 21.0233 -4.98803
1357 2 27.8253 20.8931 -3.19562
459 2 27.8381 22.6598 -4.91871
1358 2 29.691 22.6559 -3.1293
461 2 31.4951 20.9158 -6.83528
463 2 31.5627 22.7502 -5.12674
464 2 33.4147 20.9808 -5.23235
521 2 31.3824 24.5332 66.9388
524 2 33.5189 24.4662 -5.2915
467 2 35.2857 22.5037 -5.27703
528 2 37.1004 24.4479 -5.44709
471 2 38.9421 22.7256 -5.46079
475 2 42.6189 22.5642 -5.2059
476 2 44.7611 20.7648 -5.05452
474 1 44.6348 22.4488 66.6076
423 2 -5.20599 22.5877 -4.97766
479 2 46.5775 22.5493 -5.10192
540 2 48.43 24.1594 -5.01926
483 2 50.1933 25.9126 -5.00106
541 1 50.2691 27.9608 66.8763
487 1 -1.41505 26.1538 -5.0619
491 2 2.25973 26.1679 -5.21065
490 2 4.19288 26.1936 66.7356
495 2 6.06891 26.1074 -5.03582
499 2 9.69391 26.0878 -5.00929
500 2 11.5266 24.3798 -4.93473
503 2 13.321 26.2018 -4.8672
560 2 11.4229 27.9419 -4.80408
504 2 15.2953 24.4789 -5.03489
507 2 17.1813 26.1463 -5.09793
564 1 15.2559 28.0793 -4.94875
565 1 17.0098 28.1734 -6.96524
508 2 18.8624 24.2337 -5.04417
511 2 20.7575 26.1928 -5.0428
506 2 18.7746 26.1227 66.8422
509 2 20.6038 24.3649 66.7886
512 2 22.5394 24.36 -5.07985
515 2 24.2541 26.412 -5.06358
510 2 22.4447 26.2894 66.9777
516 2 26.2241 24.5033 -5.11406
576 2 26.0675 28.3369 -5.04559
519 2 27.8932 26.4411 -5.09568
520 2 29.6366 24.3159 -4.87408
580 2 29.6189 28.217 -5.07924
523 2 31.4098 26.1384 -4.89838
584 1 33.3894 28.2318 -5.06451
527 2 35.1798 26.4744 -5.1858
531 1 38.9547 26.2559 -5.31893
588 2 37.2324 28.2822 -5.14582
532 2 40.8901 24.4562 -5.18795
535 2 42.8896 26.2939 -5.11402
536 1 44.5501 24.3134 -5.13528
537 2 46.6506 24.1654 66.5895
539 2 46.475 26.0971 -5.11835
596 2 44.8107 27.9367 -5.19924
533 1 42.7805 24.3138 66.5922
534 2 44.5769 26.0935 66.7093
600 1 48.2757 27.9052 -5.07397
538 1 48.4124 25.96 66.7405
543 2 -5.28151 29.8736 -4.97821
544 2 -3.28763 28.0315 -5.13915
547 2 -1.49943 29.9458 -5.02819
548 2 0.473801 28.0675 -5.15639
1446 2 0.401247 29.7984 -3.35422
551 2 2.20941 29.8971 -5.16272
552 2 4.12628 28.0033 -5.24891
555 2 5.97017 29.6944 -5.10454
556 2 7.8161 27.8021 -5.0256
559 2 9.6645 29.7658 -4.91629
558 2 11.4475 29.8484 -6.54201
563 2 13.3179 29.9279 -4.84758
620 2 11.345 31.6773 -4.94006
567 1 17.0916 29.9892 -4.8008
624 2 15.1887 31.8936 -4.8875
625 2 17.123 31.92 66.8212
568 1 18.9539 28.0991 -5.07134
569 2 20.697 28.2333 -7.09299
628 2 18.9124 31.9045 -5.11858
571 2 20.7867 30.065 -5.13977
1470 2 22.5067 30.0001 -3.16053
570 2 22.5735 30.0631 -7.06211
572 2 22.3428 28.2316 -5.18498
575 2 24.2873 30.0441 -5.07559
574 2 26.0502 30.2052 66.8015
636 2 26.0318 31.9813 -4.97339
637 2 27.6617 31.9605 66.7038
578 1 29.7688 30.4289 66.7591
579 1 27.9819 30.1957 -5.0437
640 2 29.7271 32.0622 -4.80486
583 1 31.5144 30.1541 -4.99282
644 2 33.5872 31.8477 -4.90539
641 2 31.8625 32.0449 67.0932
587 2 35.5828 30.0195 -4.95274
591 2 39.2498 29.9686 -5.17613
586 2 37.4009 30.2587 -6.75503
590 2 40.9836 29.8504 -6.85244
592 2 41.0176 28.0449 -5.12885
649 2 39.2219 32.1191 -6.82858
593 2 42.7376 28.0619 66.794
594 2 44.622 29.8 66.8185
595 2 42.756 29.9237 -5.16796
597 2 46.4234 27.9003 66.682
599 1 46.3911 29.9136 -4.9697
657 2 46.4734 31.9223 66.9041
660 2 48.1351 31.7944 -5.0016
598 1 48.2678 30.0059 66.7484
602 2 -3.24672 33.5482 66.8242
604 2 -3.42451 31.6047 -4.92193
601 2 -5.07752 31.8375 67.0519
608 2 0.416089 31.6868 -5.06378
607 2 -1.3622 33.5308 -5.02793
611 2 2.23274 33.5683 -5.09037
612 1 4.16028 31.756 -5.08965
615 2 6.02032 33.6718 -4.79848
610 2 4.30534 33.5648 66.8688
616 2 7.92665 31.6916 -4.8209
619 2 9.68163 33.7846 -4.65188
623 2 13.2793 33.5731 -4.87388
627 2 17.01 33.5598 -5.00445
1522 2 15.0589 33.6414 -3.03254
1585 2 16.9086 35.2359 -3.09756
685 2 16.9747 35.2905 -6.75734
631 2 20.7559 33.5913 -5.03868
688 2 18.8624 35.34 -5.10653
626 2 18.9543 33.6583 -7.05424
689 2 20.7095 35.5026 66.8447
629 2 20.8222 31.8255 66.7541
632 2 22.5404 31.8737 -5.19223
633 2 24.2632 31.8977 66.8432
635 2 24.2357 33.6119 -5.00128
692 2 22.612 35.4395 -5.13274
630 2 22.5064 33.577 -6.99654
693 2 24.1708 35.3348 66.7717
634 2 26.094 33.8202 66.8631
696 2 26.0586 35.3886 -5.00815
639 2 27.8647 33.5901 -4.94687
697 1 27.9623 35.4674 66.8513
700 1 29.8119 35.3965 -5.04493
701 2 31.8004 35.5909 -6.78361
638 1 29.8129 33.4418 66.8342
642 2 33.5894 33.8485 -6.90712
643 2 31.9213 33.7555 -5.01137
645 2 35.4313 32.0654 -6.72977
648 2 37.3196 32.018 -5.03419
647 2 35.3268 33.7556 -4.95234
651 2 39.1441 33.9848 -5.1039
646 2 37.1152 33.8845 -6.85224
652 2 40.9336 31.8217 -5.16613
650 2 41.085 33.8648 -6.96108
653 2 42.8942 31.7875 -6.80315
656 2 44.6652 31.8437 -5.03881
654 2 44.596 33.5887 66.9286
655 2 42.7518 33.681 -5.02881
603 2 -5.15293 33.4826 -5.03826
658 2 48.4028 33.6074 66.8758
659 2 46.4739 33.5923 -4.94675
717 2 46.6546 35.3782 66.9942
664 2 -3.16206 35.0311 -4.93828
665 2 -1.36729 35.323 -6.95921
662 2 -3.17541 37.0302 66.9998
667 2 -1.43848 37.0125 -4.93844
668 2 0.295184 35.2694 -5.2474
669 2 2.33689 35.3868 66.9708
1569 2 2.1889 35.3484 -3.32243
671 2 2.1121 37.1394 -5.04305
672 2 4.12798 35.3018 -5.13847
675 2 5.79531 37.1345 -4.87608
676 2 7.79794 35.5113 -4.75613
674 2 7.52705 37.0424 -6.7064
1574 2 7.91316 37.3641 -2.95819
680 2 11.4118 35.5547 -4.64797
679 2 9.65678 37.2714 -5.00812
683 2 13.3809 37.2328 -4.85652
684 2 15.2015 35.282 -4.87354
687 2 16.9183 37.0544 -4.94544
682 2 15.0772 37.2547 -6.74388
691 1 20.5562 37.3517 -4.99569
748 2 18.4137 39.0056 -5.11021
686 2 18.6913 37.1799 -6.92618
749 2 20.6336 39.1271 -6.97673
752 2 22.435 39.0998 -5.06558
695 1 24.3059 37.3577 -5.0813
690 2 22.51 37.2097 66.7494
694 1 26.078 37.273 -7.11235
699 1 27.9452 37.3622 -4.99783
698 2 29.9903 37.1321 -7.025
703 2 31.7542 37.3 -4.96219
757 2 28.0842 39.0535 -6.87128
704 2 33.7807 35.5014 -4.80773
702 2 33.6011 37.1658 -6.78887
707 2 35.5198 37.2102 -4.90019
1602 2 33.5853 37.2937 -3.07295
705 2 35.3301 35.6363 -6.99854
708 2 37.1136 35.5504 -5.00521
709 2 38.9609 35.6515 -6.858
712 2 40.8868 35.6303 -5.12771
711 2 38.8424 37.4075 -4.95046
710 2 40.9379 37.3613 -6.76029
713 2 42.9379 35.4415 67.0052
716 2 44.6001 35.4938 -4.8562
715 2 42.7781 37.3118 -4.84212
714 1 44.7825 37.2745 -6.82317
661 2 50.3824 35.22 66.9207
720 2 48.4618 35.4296 -4.90342
663 2 -4.94367 37.0286 -5.03754
718 2 48.4181 37.0591 66.744
719 2 46.6506 37.0756 -4.86672
724 2 -3.1901 38.8515 -5.0134
723 2 -4.91882 40.7403 -5.18168
728 2 0.325759 38.9101 -5.11836
1629 2 2.08865 38.9514 -3.33994
727 2 -1.40122 40.7808 -5.09715
731 2 2.19868 40.7777 -5.27197
788 2 0.367805 42.5365 -5.07555
732 2 4.00984 38.8956 -5.14301
735 2 5.90825 40.7329 -4.93643
736 2 7.66856 39.0014 -4.85081
734 2 7.69247 40.7515 -6.77334
1634 2 7.70411 40.7595 -3.10465
740 2 11.5462 38.9287 -4.85263
739 2 9.53395 40.7092 -4.70874
743 2 13.2441 40.8938 -4.97101
737 2 9.63995 38.8895 -6.7579
738 2 11.4495 40.7305 -6.64855
741 2 13.3228 39.0419 -6.59563
744 2 15.1861 38.913 -4.89126
745 2 16.8466 39.0037 -6.80399
747 2 16.9179 40.9553 -4.87804
742 2 15.165 40.7906 -6.759
805 2 16.81 42.7879 -6.75127
751 2 20.3939 40.801 -4.94663
808 2 18.6787 42.7393 -4.89792
746 2 18.6983 41.0215 -6.74343
755 2 24.1354 40.7918 -5.06663
753 2 24.1401 38.9836 -7.01259
809 2 20.7176 42.7445 -6.85571
750 2 22.2946 40.9584 66.8319
756 2 26.1568 39.2373 -4.99032
754 1 26.1925 40.8429 -6.83853
760 2 29.9961 39.0532 -5.09743
759 2 28.175 40.7633 -4.82253
763 2 31.7727 40.7206 -4.86472
758 2 29.9362 40.7132 -6.89405
761 2 31.7954 39.0373 -6.95207
764 2 33.6899 39.0099 -5.06082
767 2 35.2094 40.8653 -4.90391
825 2 35.3207 42.7591 -7.01711
765 2 35.4126 39.2041 -6.98052
762 2 33.662 40.885 -6.95215
768 2 37.0528 39.1088 -5.06593
828 1 37.1326 42.6302 -5.01158
772 2 40.8488 39.0349 -4.91759
771 2 38.9668 40.8464 -4.89046
829 1 39.0649 42.7279 -6.91518
832 2 40.9052 42.6775 -4.83441
769 2 38.8512 39.1612 -6.86712
770 2 40.8655 40.8426 -6.76815
776 2 44.7529 39.1596 -4.9768
775 2 42.7187 40.7923 -4.84435
773 2 42.7747 39.1167 -6.77037
774 2 44.6203 40.8457 -6.66656
780 1 48.4196 38.981 -5.0313
779 2 46.5455 40.8135 -4.94675
777 2 46.6324 39.1143 -6.93357
784 2 -3.23907 42.6923 -5.03366
787 2 -1.50028 44.5403 -5.0711
786 2 0.489288 44.4491 66.897
791 1 2.2181 44.4935 -4.80134
792 2 4.11746 42.6291 -4.88397
795 2 5.95253 44.4171 -4.97552
852 2 4.3521 46.2841 -4.84228
793 2 5.93257 42.6467 -6.81067
794 2 7.86812 44.583 -6.82859
796 2 7.61905 42.5808 -4.9306
1693 2 5.92277 42.6425 -3.15797
799 2 9.55256 44.682 -4.8676
800 2 11.3516 42.7041 -4.91498
803 2 13.3456 44.6109 -5.01964
804 2 15.1823 42.727 -4.88463
802 2 15.0534 44.6029 -6.78235
807 2 16.684 44.5094 -4.95332
806 1 18.6895 44.5824 -6.75254
811 2 20.6257 44.5416 -5.07529
810 2 22.4851 44.9294 -6.73826
812 2 22.345 42.6787 -4.90986
815 2 24.074 44.5607 -4.97161
813 2 24.2503 42.8156 67.0067
816 1 26.252 42.6586 -4.9462
814 2 26.1968 44.6412 66.874
817 1 28.2255 42.6812 -6.8434
818 2 30.0185 44.6363 -6.90889
819 2 28.4075 44.4584 -4.96844
820 2 30.0437 42.5437 -4.82708
880 2 29.964 46.4108 -4.9099
821 1 31.756 42.6188 -6.92396
823 2 31.6392 44.5608 -5.0139
824 2 33.5374 42.6298 -5.02309
822 2 33.4895 44.5764 -6.88149
827 2 35.2104 44.4898 -5.15018
826 2 37.293 44.7072 -6.89948
885 2 35.3583 46.3883 66.9377
888 2 37.2665 46.4928 -5.07095
831 2 39.1365 44.4743 -5.14154
889 2 39.2576 46.5577 -7.03386
892 2 40.8224 46.4003 -5.1121
830 2 40.898 44.5013 -6.81666
893 1 42.8879 46.484 66.9889
835 2 42.7324 44.4703 -4.97474
836 2 44.6035 42.7533 -4.927
839 2 46.6292 44.4941 -5.12627
896 2 44.8093 46.1253 -4.99214
833 2 42.586 42.6667 -6.82679
834 2 44.4182 44.5164 -6.87452
783 2 50.1966 44.7768 -4.96785
838 2 48.2601 44.5582 -7.01701
840 2 48.3718 42.7633 -5.01427
900 2 48.3346 46.2731 -5.23397
781 1 -5.12144 42.7549 66.8146
4 2 -3.48826 49.9123 -4.96378
841 2 50.1083 46.4605 66.7202
842 2 -3.33615 48.0944 66.8254
844 2 -3.45172 46.5511 -5.01651
845 2 -1.0915 46.3221 -6.89361
847 2 -1.57177 48.2122 -4.94773
909 2 2.27238 -5.36896 -3.14408
848 2 0.271426 46.3442 -4.91066
851 2 2.26537 48.1782 -4.78457
846 2 0.460757 48.1581 67.0574
855 2 6.14827 48.1653 -4.80081
16 2 7.89355 49.8421 -4.9488
856 2 7.84294 46.2858 -5.04723
859 2 9.62066 48.0329 -4.94968
20 2 11.4262 -5.36999 -5.0133
860 2 11.4917 46.3619 -4.98786
24 2 15.0001 -5.24337 -4.97286
863 2 13.3839 48.3648 -4.89708
864 2 15.0236 46.4924 -5.17358
867 2 16.7924 48.3018 -5.08407
29 2 20.4321 50.004 -6.85923
868 2 18.4673 46.4204 -4.95087
871 2 20.3531 48.3593 -4.85918
869 1 20.4588 46.5393 -6.75419
870 2 22.3124 48.3974 -6.68394
872 2 22.2342 46.6656 -4.95653
873 1 24.323 46.7055 -6.78284
874 2 26.4647 48.4196 66.7382
875 2 24.0261 48.3679 -4.73856
876 1 26.123 46.435 -5.018
877 2 28.0327 46.2451 -6.76765
878 1 29.7207 48.2472 -6.89722
879 2 28.0135 48.1724 -4.98795
883 2 31.8008 48.3422 -5.04446
884 2 33.4123 46.3008 -4.91039
881 2 31.6573 46.5035 -6.84757
882 1 33.6299 48.3766 -6.8365
48 2 37.3354 50.0733 -4.92595
887 2 35.3202 48.3292 -4.80666
886 1 37.1988 48.3456 67.001
52 2 41.1396 49.9218 -5.02191
891 2 39.1848 48.3091 -5.04527
890 2 41.0553 48.2779 66.9879
53 2 42.9518 50.0592 66.9313
895 2 43.0206 48.1296 -4.86712
56 1 44.9037 -5.30753 -5.04982
894 2 44.791 48.1425 -6.96848
57 2 46.7452 50.0751 66.8561
897 2 46.3994 46.2094 -6.98306
899 2 46.5599 48.0049 -5.05843
1 1 49.988 50.026 66.8605
843 2 49.9691 48.2987 -4.95266
60 2 48.1416 50.0418 -4.8528
898 2 48.2218 48.1675 66.8158
902 1 -3.50085 -3.40172 -3.15719
905 2 -1.54256 50.1531 -3.24254
904 2 -3.41141 50.0708 -1.498
907 2 -1.37099 -3.52768 -1.41968
906 2 0.282899 -3.47145 -3.3668
908 2 0.25528 49.9964 -1.4513
911 2 2.22039 -3.53264 -1.4175
915 1 5.87893 -3.38433 -1.31763
912 2 4.01148 49.9599 -1.28323
919 2 9.5372 -3.40418 -1.28872
918 2 11.4354 -3.38185 -3.06252
920 2 11.4559 -5.30816 -1.14141
980 2 11.3353 -1.65549 -1.32807
923 2 13.1516 -3.26648 -1.30178
922 2 15.0447 -3.4868 -3.05612
981 2 13.3545 -1.59739 -3.16133
984 2 15.1295 -1.48592 -1.3992
985 2 16.9042 -1.55922 -3.25992
926 2 18.5309 -3.55539 -3.31158
989 1 20.5334 -1.59023 -3.2825
929 2 20.3796 -5.2102 -3.04852
927 2 16.8278 -3.43432 -1.42124
931 2 20.4079 -3.54114 -1.39382
988 2 18.5985 -1.62832 -1.35372
928 2 18.5588 -5.27518 -1.24143
930 2 22.4783 -3.2598 -3.25113
992 2 22.2504 -1.72623 -1.22896
932 2 22.3215 -5.14842 -1.30515
934 2 26.3405 -3.32023 -3.33144
933 2 24.23 50.2573 -3.22616
935 1 24.3138 -3.39573 -1.34072
996 2 26.2164 -1.56387 -1.51933
936 1 26.3266 50.0781 -1.45954
938 2 29.976 -3.26354 -3.20761
997 2 28.2252 -1.57455 -3.1279
937 2 28.2148 50.0778 -3.25601
939 2 28.103 -3.40157 -1.44253
940 2 30.0122 50.1343 -1.404
1000 2 30.0491 -1.5315 -1.34315
941 2 31.8725 50.1953 -3.03476
942 2 33.6955 -3.46463 -3.10158
945 2 35.4775 50.0024 -2.98712
943 2 31.7873 -3.46985 -1.18175
947 2 35.4198 -3.40541 -1.33269
944 2 33.4517 -5.35122 -1.22058
946 2 37.3797 -3.53896 -3.18135
951 2 39.1941 -3.66621 -1.42124
950 2 41.1148 -3.77185 -3.23306
953 2 43.0128 -5.33377 -3.19812
1013 2 42.7583 -1.86822 -3.19972
952 2 41.0886 49.8815 -1.43906
955 2 43.0728 -3.47359 -1.33132
1012 2 40.8835 -1.71284 -1.34339
954 2 44.7781 -3.41942 -3.22085
957 2 46.5957 -5.24309 -2.99791
956 2 44.7764 -5.26149 -1.36248
901 2 49.9908 49.9312 -3.07933
958 2 48.2036 -3.29849 -3.09894
903 1 49.9643 -3.5206 -1.16217
959 2 46.4813 -3.39746 -1.20927
960 2 48.1503 50.0424 -1.02117
965 2 -1.61243 -1.53655 -3.2083
962 2 -3.42712 0.183045 -3.08902
1025 2 -1.58821 2.05376 -3.06033
964 2 -3.39491 -1.63912 -1.25935
967 2 -1.53631 0.184762 -1.33154
1024 2 -3.49986 2.02806 -1.43706
969 2 2.09014 -1.61961 -3.2592
966 2 0.209196 0.244077 -3.08201
968 1 0.38856 -1.62915 -1.36737
970 2 3.88143 0.428589 -3.17994
1033 1 5.78468 2.34083 -3.14723
972 1 3.9623 -1.52559 -1.38965
971 2 2.2762 0.388493 -1.29122
975 2 5.75024 0.447031 -1.3761
977 2 9.49359 -1.38213 -3.12566
976 2 7.70059 -1.42794 -1.25336
1036 2 7.6532 2.36739 -1.18557
979 2 9.59972 0.395093 -1.47202
978 2 11.3686 0.2315 -3.34423
1037 2 9.38345 2.33234 -3.09062
1040 1 11.424 2.29923 -1.55911
983 2 13.305 0.32941 -1.63336
1041 2 13.3879 2.24346 -3.25741
982 2 15.2398 0.307566 -3.18484
1045 2 16.9739 2.22095 -3.24059
986 2 18.628 0.345057 -3.2208
987 2 17.0049 0.326021 -1.3722
991 1 20.4913 0.297663 -1.36775
993 2 24.3712 -1.59825 -3.2012
990 1 22.4986 0.272349 -3.03079
994 2 26.1689 0.344524 -3.18132
995 2 24.308 0.117488 -1.41055
1056 2 26.1162 2.14267 -1.44065
998 1 30.0417 0.421643 -3.20523
999 2 27.9839 0.268483 -1.45965
1001 2 31.675 -1.52119 -3.28341
1002 2 33.753 0.493363 -3.18523
1004 1 33.7028 -1.48265 -1.35653
1003 1 31.8448 0.290256 -1.34842
1005 2 35.6975 -1.61523 -3.16033
1009 1 39.1305 -1.7045 -3.42018
1006 2 37.2468 0.183796 -3.25086
1008 2 37.337 -1.66899 -1.3483
1007 2 35.4495 0.408937 -1.43129
1011 2 39.1642 -0.0588603 -1.30689
1010 2 40.8201 0.326334 -3.17541
1015 1 42.866 0.150349 -1.41716
1017 2 46.4447 -1.44795 -3.04616
1014 2 44.7169 0.333418 -3.06167
1016 2 44.7338 -1.58846 -1.21961
1019 2 46.5342 0.361324 -1.18941
961 2 50.0428 -1.40683 -3.22509
1021 2 49.9528 1.9136 -3.34386
1018 2 48.1479 0.197072 -3.26354
1020 2 48.2798 -1.57939 -1.38448
963 2 50.1799 0.133367 -1.30324
1022 1 -3.51259 3.83191 -3.36015
1027 2 -1.53438 3.91977 -1.4163
1029 2 2.18461 2.21853 -3.1085
1026 2 0.17664 4.02535 -3.08241
1089 2 2.08746 5.87825 -3.26948
1028 2 0.273883 2.10315 -1.40232
1031 2 1.99008 3.92011 -1.24838
1088 2 0.175646 5.88361 -1.52175
1030 2 3.86042 3.9992 -3.22864
1032 2 3.84188 2.28217 -1.24651
1092 1 3.9401 5.7559 -1.27656
1034 2 7.70512 4.12862 -3.19944
1035 2 5.78044 3.9506 -1.14147
1096 1 7.58928 6.02728 -1.39587
1039 2 9.59442 4.2538 -1.30419
1038 2 11.4369 4.20119 -3.09816
1097 1 9.56744 6.06222 -3.23513
1101 2 13.2694 6.08953 -3.03592
1100 2 11.5022 6.09544 -1.32559
1042 2 15.1857 4.08516 -3.16404
1105 2 17.0082 5.97295 -3.14261
1044 2 15.2093 2.22264 -1.40478
1043 2 13.4104 4.15329 -1.47306
1104 2 15.2488 5.91728 -1.27035
1046 2 18.7784 4.14493 -3.15386
1048 2 18.8584 2.31484 -1.45568
1047 2 17.017 4.10715 -1.33356
1049 2 20.661 2.2152 -3.09999
1050 2 22.355 4.02009 -3.03823
1109 2 20.5802 5.96434 -3.20458
1052 2 22.3972 2.27218 -1.13963
1051 2 20.6138 4.09124 -1.13192
1055 2 24.2382 3.9153 -1.32689
1053 2 24.263 2.16417 -3.08682
1057 2 28.1212 2.16781 -3.18907
1054 2 26.2332 4.19716 -3.09097
1117 2 28.2251 5.92717 -2.95904
1059 2 28.0712 3.80439 -1.55789
1058 2 30.1339 4.08407 -3.06576
1060 2 29.9847 2.29528 -1.363
1063 2 31.8497 4.04006 -1.19275
1061 2 32.028 2.38108 -3.29231
1065 2 35.643 2.19851 -3.25535
1062 2 33.8093 4.08748 -3.19913
1064 2 33.6482 2.28421 -1.37747
1067 2 35.5552 4.13046 -1.501
1069 2 38.9461 2.09311 -3.22913
1066 2 37.3617 4.17909 -3.36755
1129 2 39.065 5.82243 -3.32658
1068 2 37.2066 2.25484 -1.36162
1071 1 39.0545 4.06878 -1.33427
1128 2 37.2887 6.10265 -1.51583
1073 2 42.6818 2.35291 -2.90972
1070 2 40.8346 4.00253 -3.15935
1072 2 40.85 1.92663 -1.23065
1075 2 42.6483 4.25859 -1.3756
1074 2 44.645 3.97631 -3.00268
1077 2 46.5063 2.08445 -3.07819
1133 2 42.8825 6.03012 -3.14418
1076 2 44.728 2.19708 -1.34841
1079 2 46.5624 3.96631 -1.34482
1078 2 48.1644 4.0272 -3.11705
1081 1 50.1191 5.86199 -3.15024
1080 1 48.3648 2.20753 -1.33788
1023 2 50.236 4.01291 -1.3225
1140 2 48.3777 5.84942 -1.26836
1082 2 -3.46364 7.84917 -3.36583
1085 2 -1.62397 5.97963 -3.26833
1141 2 50.0376 9.70861 -3.3496
1084 2 -3.24802 5.83339 -1.48285
1087 2 -1.75692 7.81401 -1.58857
1144 2 -3.4387 9.74237 -1.37698
1086 2 0.211872 7.69877 -3.30796
1145 2 -1.7271 9.75767 -3.37973
1148 2 0.0285438 9.70477 -1.48689
1090 2 4.11438 7.54714 -3.32308
1149 1 2.21201 9.49531 -3.32591
1153 2 5.78676 9.48492 -3.08709
1091 2 2.02213 7.68764 -1.54238
1095 2 5.73407 7.75548 -1.35476
1152 2 3.98446 9.68914 -1.43152
1094 2 7.66875 7.70062 -3.25904
1157 2 9.72644 9.3846 -3.22944
1099 2 9.73807 7.75956 -1.2605
1156 1 7.7836 9.38297 -1.38813
1098 2 11.5183 7.73785 -3.50127
1103 2 13.5853 7.70662 -1.39212
1160 1 11.5415 9.50993 -1.34083
1102 2 15.2072 7.87345 -3.16099
1161 1 13.3943 9.68966 -3.23871
1107 1 16.9485 7.86596 -1.30795
1164 2 15.2351 9.80742 -1.22425
1106 2 18.8847 7.83145 -3.1498
1108 1 18.8483 6.04825 -1.19736
1168 1 18.9254 9.83327 -1.33963
1110 2 22.443 7.75289 -3.16
1111 2 20.6919 7.88676 -1.26117
1112 2 22.3357 5.8184 -1.27285
1113 2 24.2829 6.04391 -2.92571
1114 1 26.2187 7.81438 -3.01755
1115 2 24.1688 7.83166 -1.2581
1116 2 26.1564 5.87689 -1.32045