ITEM: TIMESTEP
500
ITEM: NUMBER OF ATOMS
18000
ITEM: BOX BOUNDS pp pp pp
-2.0635481309503234e+00 4.7063548130950323e+01
-2.0635481309503234e+00 4.7063548130950323e+01
-2.7513975079337527e+00 6.2751397507933760e+01
ITEM: ATOMS id type x y z
2 2 -0.0219302 -0.24852 -2.53554
3 2 -1.87453 -0.186409 -1.17435
4 2 -0.071489 -1.97159 -0.806931
5 2 1.04589 47.05 -2.65227
7 2 1.4041 -0.163129 -0.878093
64 2 -0.302735 1.39452 -1.07962
901 2 -1.97178 -1.91592 0.323008
902 1 -0.474858 -0.060483 0.718981
905 2 1.32301 -1.76522 0.784075
965 2 1.48556 1.42237 0.7853
6 2 2.7153 -0.439246 -2.7048
8 2 2.66308 -1.98389 -1.10829
11 2 4.52927 -0.72299 -1.1718
68 2 3.24216 1.14213 -1.06845
906 2 3.11241 -0.181448 0.648346
969 2 4.81099 0.994965 0.815946
72 2 5.9373 0.986027 -1.04345
910 1 6.00305 -0.886575 0.727499
14 2 8.85628 -0.480211 -2.57888
15 2 7.31755 -0.606607 -1.17724
76 2 8.97058 1.17743 -1.2409
914 2 9.02767 -0.578248 0.285551
973 2 7.53134 1.14874 0.530061
18 2 12.9257 -0.0598299 -2.51551
19 1 10.9521 -0.564504 -1.45757
20 2 12.9913 -1.95247 -1.16488
77 2 10.8036 1.36815 -2.6127
80 2 12.6367 1.37951 -0.866533
917 2 10.9789 -1.73741 0.499086
918 2 12.7836 -0.507171 0.338408
977 2 10.7691 0.813148 0.308767
23 2 14.5971 -0.0454888 -0.964284
24 2 15.4566 -1.98139 -1.13127
27 2 17.2707 -0.3415 -1.26323
81 2 14.5146 1.48007 -2.5399
84 2 16.2154 1.49931 -1.04879
921 2 14.6 -1.71184 0.816278
922 2 16.2593 -0.354261 0.685169
981 2 14.4249 1.18975 0.819122
985 2 17.8691 1.36065 0.345962
26 2 19.1819 -0.468413 -2.31251
31 2 20.8035 -0.384872 -1.13198
88 2 18.9917 1.42836 -1.44182
89 2 21.1165 1.23596 -2.50151
926 2 18.9925 -0.474549 0.183234
989 1 20.5991 1.3581 0.392907
930 2 22.3147 -0.361254 0.494236
30 1 22.8418 -0.502436 -2.24213
34 2 25.513 -0.388544 -2.37547
35 2 24.3456 -0.344645 -0.492976
92 2 22.7098 1.38249 -0.862473
93 2 24.288 1.35021 -2.57796
96 2 25.5306 1.51317 -0.873881
934 2 25.9731 -0.386654 0.894869
993 2 24.1252 1.37011 0.832762
37 2 27.1701 -1.9899 -2.60299
39 2 27.2588 -0.23328 -1.01336
40 2 28.8083 -1.84014 -1.12132
100 2 29.0895 0.857425 -1.46274
938 2 28.8198 -0.130498 0.533413
997 2 27.2435 1.33394 0.471247
43 2 30.6007 -0.749339 -1.05809
941 2 30.4269 -1.80991 0.770953
1001 2 30.678 0.841267 0.441812
42 2 32.535 -0.768701 -2.68673
44 2 32.3462 -1.99284 -0.966589
45 2 34.2929 -1.89251 -2.66476
47 2 34.2155 -0.945255 -0.793074
101 2 30.9329 0.884079 -2.69696
104 1 32.6207 0.759862 -0.848712
105 2 33.9669 0.741728 62.7434
942 2 32.3968 -0.867017 0.849157
1005 2 34.0959 0.988563 0.928314
46 2 35.8354 -0.40011 -2.60139
48 2 36.1223 -1.84889 -0.876418
49 2 37.4485 -1.79155 -2.66097
51 2 37.4899 -0.184629 -0.776316
108 2 35.4404 0.837747 -0.85528
109 2 37.457 0.948436 -2.67283
949 2 37.4512 -1.85637 0.959216
1009 1 36.8955 1.31012 1.03004
52 2 38.8052 -1.91317 -0.856382
55 2 40.0913 -0.235065 -1.00622
56 1 41.658 -1.98947 -0.745676
112 2 38.846 1.52157 -1.07837
116 2 41.9388 0.972832 -1.50671
950 2 38.8044 -0.0295243 0.874146
953 2 40.121 -1.852 0.999698
954 2 41.8684 -0.0711407 0.437374
1013 2 40.4736 1.49275 0.46977
961 2 46.8817 1.57316 0.563076
58 2 45.4599 -0.510325 -2.44034
59 2 43.4798 -0.53211 -1.33952
120 2 45.2213 1.32793 -1.33177
957 2 43.8473 -1.76429 0.320895
958 2 45.584 -0.212103 0.156633
1017 2 43.6917 0.967197 0.292058
67 2 1.5752 2.44582 -1.02822
124 1 -0.208976 3.98301 -1.16223
125 2 1.56471 4.14709 -2.58104
962 2 -0.351464 2.53101 0.679387
1025 2 1.18177 4.0871 0.774426
122 2 -0.203545 5.9025 -2.34536
127 2 1.46526 5.92017 -0.76431
1022 1 -0.520501 5.80983 0.370679
71 2 4.73638 2.76283 -0.850221
128 1 2.97353 4.23131 -0.640654
129 2 4.17856 4.6372 -2.59442
966 2 3.28996 2.47664 0.835981
1029 2 4.89781 4.53446 0.880266
132 2 5.88843 4.50105 -1.01797
970 2 6.03815 2.78316 0.813655
126 2 2.54397 6.07625 -2.63702
131 2 4.3589 6.10036 -0.90236
75 2 7.33832 2.78981 -1.15267
136 2 9.26635 4.0965 -1.03066
974 2 9.28546 2.44773 0.482983
1033 1 7.82494 4.22955 0.702385
134 2 9.67273 5.66281 -2.52932
135 2 7.74474 5.61191 -1.45529
1030 2 6.52171 6.08103 0.315303
1034 2 9.39685 5.99237 0.161553
78 2 12.67 2.46181 -2.75222
79 2 11.0027 2.71957 -0.897099
137 2 11.2465 4.05013 -2.62945
140 2 12.8109 4.13322 -0.909285
978 2 12.4473 2.79365 0.83404
1037 2 10.8716 4.36041 0.54954
1041 2 14.3319 4.54222 0.611229
139 2 11.2967 5.70511 -0.975552
143 2 14.1732 5.81304 -1.37044
83 2 14.3628 2.66302 -0.714285
87 2 17.727 3.1655 -1.32231
144 2 15.8041 4.32049 -1.11608
982 2 16.2368 2.91261 0.62742
1045 2 17.5082 4.79671 0.335657
147 1 17.3236 5.91646 -1.72639
91 2 20.6535 2.89122 -1.29556
148 1 19.3948 4.78179 -1.59309
986 2 19.0132 3.18955 0.36264
1049 2 20.4962 4.74265 0.42602
152 2 22.1267 4.35715 -1.264
990 1 22.1989 3.19761 0.769411
1050 2 22.2238 5.91796 0.503576
90 2 22.7063 2.81001 -2.62873
94 2 25.5006 3.17806 -2.65936
95 2 23.9596 3.20354 -0.817094
156 1 25.7984 4.51374 -0.840564
994 2 25.8226 2.98679 0.839257
1053 2 24.0734 4.8053 0.926091
155 1 23.8712 5.89187 -1.21119
98 2 29.0486 2.74317 -2.51925
99 2 27.2927 2.78008 -1.27915
157 2 27.4085 4.5649 -2.58493
160 2 29.1831 4.461 -1.17481
998 1 29.12 2.60562 0.150059
1057 2 27.6735 4.63516 0.421623
103 2 31.0081 2.5202 -1.23161
107 2 33.9982 2.55923 -1.03943
161 2 30.9068 4.35171 -2.43069
164 2 32.7323 4.33389 -1.31266
1002 2 32.4372 2.6904 0.539861
1061 2 30.8965 4.30599 0.187477
1065 2 33.5537 4.45614 0.676672
167 2 34.1338 6.08557 -0.829709
106 2 35.4363 2.38527 -2.57049
111 2 36.9172 2.52175 -1.01133
168 2 35.3532 4.25112 -0.759636
169 2 36.9597 4.23348 -2.38437
1006 2 35.1827 2.81178 0.814017
1069 2 37.1132 3.98015 0.578811
172 2 38.7262 4.10356 -1.11936
171 2 36.9334 5.88296 -0.577528
1066 2 35.2951 5.75504 1.01472
170 2 38.4262 6.06511 -2.27584
115 1 40.6998 2.90697 -1.39153
176 2 42.2968 4.48577 -1.49096
1010 2 38.8653 2.89267 0.694161
1014 2 42.3834 2.67775 0.376323
1073 2 40.7492 4.20342 0.4989
175 1 40.4424 5.8447 -1.22461
1070 2 38.8547 5.69423 0.427375
1074 2 42.2905 6.01743 0.266866
63 2 47.0125 2.47285 -1.20461
121 2 47.0258 4.19328 -2.46397
1021 2 46.9678 4.12146 0.345332
119 2 43.4393 2.59047 -1.52059
180 2 45.1805 4.02047 -1.30432
1018 2 45.0756 2.65611 0.425741
1077 2 43.66 4.39127 0.273345
123 2 47.0463 5.89305 -1.33491
179 2 43.9155 6.07885 -1.47972
1078 2 45.4508 5.82712 0.165531
181 2 -1.66035 7.81608 -2.46899
182 2 -0.141401 9.63707 -2.4357
184 2 -0.293071 7.7396 -0.858857
185 2 0.9962 7.71155 -2.52892
187 2 1.48071 9.61738 -0.98737
1082 2 -0.414634 9.46688 0.24965
1085 2 1.37241 7.81359 0.472399
188 2 2.77266 7.76173 -1.21764
191 2 4.29745 9.40719 -1.29753
1026 2 2.94181 6.19431 0.838956
1086 2 2.94341 9.46414 0.645972
1089 2 4.45732 7.88731 0.328601
190 2 6.03408 9.24964 -2.54039
192 2 6.04287 7.49495 -1.32945
193 2 7.82869 7.4837 -2.53091
194 2 9.643 9.23582 -2.58022
195 2 7.8155 9.40484 -1.39403
196 2 9.54889 7.51664 -1.42593
1090 2 6.20803 9.09547 0.102081
1093 2 7.97365 7.63644 -0.0245614
1094 2 9.45379 9.39758 0.0341159
197 2 11.2899 7.44233 -2.57941
199 2 11.2288 9.60095 -1.18513
200 2 12.9327 7.67619 -1.3154
1038 2 12.8625 6.1922 0.401855
1097 1 11.1737 7.71313 0.167648
1098 2 12.7693 9.49796 0.270545
203 2 13.9037 9.62904 -1.58307
204 1 15.5728 7.67554 -1.59437
207 2 17.4233 9.40401 -1.42329
1042 2 15.7331 6.20156 0.205394
1101 2 14.2621 7.87002 0.343152
1102 2 15.5706 9.60233 -0.0751382
1105 2 17.3741 7.67939 -0.077595
151 2 21.0894 6.22512 -1.43909
206 2 19.1985 9.43515 62.7458
208 2 19.2449 7.53438 -1.55344
211 2 21.0824 9.35945 -1.31968
1046 2 19.0692 6.26169 0.177012
1106 2 19.2534 9.23724 -0.162207
1109 2 20.9387 7.73012 0.218173
212 2 22.6381 7.82685 -1.24373
214 2 25.6858 9.18276 -2.54058
215 2 24.0974 9.4229 -1.06208
216 2 25.4863 7.63124 -1.02699
1054 2 25.79 6.32029 0.658629
1110 2 22.5261 9.30651 0.419537
1113 2 23.9125 7.40451 0.631694
1114 1 25.4915 9.13889 0.801534
158 2 29.0577 6.21761 -2.41417
159 2 27.2783 6.32471 -1.04834
217 2 27.4916 7.84988 -2.4941
218 2 28.9775 9.7126 -2.40635
219 2 27.2507 9.10598 -0.643207
220 2 29.1154 8.00632 -1.1193
1058 2 29.2815 6.23282 0.144408
1117 2 27.5541 7.54806 0.740816
1118 2 29.1206 9.7179 0.403593
223 2 30.8423 9.65628 -1.01885
162 2 32.6725 6.14819 -2.46097
163 2 30.9255 6.18724 -1.31517
221 2 30.8526 7.97672 -2.39938
222 2 32.4718 9.51575 -2.60483
224 2 32.7561 7.84172 -1.16305
225 2 34.4388 7.82592 -2.49907
227 2 34.2936 9.63904 -1.11207
1062 2 32.1452 6.1028 0.431321
1121 2 30.9655 7.96914 0.2264
1122 2 32.583 9.55985 0.327066
1125 2 33.7936 7.64592 0.762295
166 2 35.6918 6.0915 -2.38551
226 2 35.859 9.56419 -2.61328
228 2 35.5419 7.76904 -0.588539
229 2 37.0309 7.77896 -2.30261
231 2 36.9607 9.50102 -0.668761
1126 2 35.2203 9.41059 0.946572
1129 2 37.1181 7.58337 0.84597
230 1 38.5974 9.69725 -2.34225
232 2 38.6206 7.6739 -0.759155
1130 2 38.8107 9.41339 0.440358
233 2 40.2016 7.88649 -2.27949
234 2 41.8464 9.56875 -2.40653
235 2 40.3986 9.54725 -0.830745
236 2 42.2615 7.71365 -1.25006
1133 2 40.5949 7.61432 0.241293
1134 2 42.2108 9.47508 0.280175
183 2 47.0214 9.56669 -1.12753
1081 1 46.946 7.65913 0.353954
239 2 43.9053 9.33328 -0.911887
240 2 45.4747 7.87732 -1.35225
1137 2 43.9836 7.46402 0.291843
1138 2 45.2713 9.32986 0.757885
242 2 -0.37076 12.8324 62.7182
244 2 -0.613729 11.2272 -1.12218
247 2 1.13372 12.3584 -1.1851
1142 2 -0.593171 12.3128 0.774541
1145 2 1.11787 11.0192 0.587449
304 2 -0.599136 13.8723 -0.903608
305 2 1.25314 14.221 62.6883
1201 2 -1.86508 14.1176 0.965776
1205 1 1.22515 13.7707 0.691958
248 2 2.95766 11.2197 -1.07811
251 2 4.52613 12.6821 -1.10533
1146 2 2.92679 12.1172 0.849816
1149 1 4.84978 10.8548 0.5652
252 2 6.0479 11.1571 -1.45947
1150 2 5.97094 12.8637 0.572682
308 2 2.71064 13.7918 -1.11613
1209 2 4.03196 13.9546 0.69673
312 2 5.89572 14.2832 -1.20957
253 2 8.01947 11.092 -2.65794
255 1 7.73807 12.959 -1.07351
256 2 9.38464 11.321 -0.754787
1153 2 7.47191 10.969 0.201956
1154 2 9.59668 13.0264 0.520479
257 2 10.5171 11.1345 -2.63332
259 2 10.8148 12.9091 -1.33655
260 2 12.4124 11.4706 -1.49017
1157 2 11.2198 11.1441 0.44884
1158 2 12.2978 13.0015 0.486198
263 2 13.9612 13.0381 -1.54509
1161 1 14.0402 11.4318 0.251065
1221 2 14.0681 14.1263 0.475247
264 2 15.6292 11.3745 -1.57447
265 2 17.4687 11.26 -2.70538
267 2 17.4905 13.0111 -1.61594
1162 2 15.8595 12.824 0.22494
1165 2 17.3002 11.2217 -0.0420966
324 2 15.7626 14.1316 -1.40493
1225 2 17.6096 14.1682 0.319873
266 2 19.4082 12.9234 -2.52862
268 2 19.1711 11.0739 -1.32529
269 2 21.0977 11.2739 -2.44014
271 2 20.9276 12.9914 -0.971643
1166 2 19.0828 12.7409 0.108992
1169 1 21.0063 11.0598 0.233402
270 2 22.7618 12.6464 -2.66508
272 2 22.8581 11.2506 -1.10396
273 2 24.5924 11.3019 -2.6058
274 2 26.4537 12.5469 -2.30341
275 2 24.392 12.7131 -0.597288
276 2 25.5828 11.0268 -0.625118
1170 2 22.4389 12.8173 0.889301
1173 2 23.7837 11.0303 0.956569
332 2 22.7476 13.8915 -0.930659
277 2 27.1313 10.6643 -2.05192
278 2 28.7374 12.7151 -2.53001
279 2 27.2227 13.0103 -0.457371
280 2 28.8237 11.401 -0.877486
1177 2 27.2711 11.0923 0.630349
1178 2 29.0926 12.9014 0.719613
281 2 30.5602 11.3439 -2.38096
340 2 28.9809 14.1787 -1.0068
283 2 30.8221 13.0958 -1.16983
284 1 32.6862 11.4012 -1.31478
287 1 34.4025 12.929 -1.44841
1181 1 30.9528 11.459 0.40035
1182 2 32.7643 13.0409 0.51702
1185 2 34.0381 11.2674 0.616194
1241 2 30.8673 14.1067 0.649454
288 2 35.6882 11.2113 -0.856692
291 2 36.9374 12.8777 -1.19555
1186 2 35.5029 12.9108 0.790194
1189 2 36.9791 11.2495 0.862828
292 2 38.4717 11.3406 -0.770908
1190 2 38.5098 13.0336 0.547565
293 2 40.4002 11.1925 -2.47451
295 2 40.2455 12.9619 -1.27195
296 2 42.2705 11.3376 -0.851266
1193 2 40.3656 11.3629 0.186324
1194 2 41.9926 13.0277 0.523971
356 2 42.1403 14.216 -1.26297
1253 2 40.2796 14.2264 0.454224
243 2 46.8468 12.5452 -1.07695
1141 2 46.8335 11.0277 0.626971
297 2 43.6359 10.7912 -2.50302
299 2 43.9425 12.9157 -1.03026
300 2 45.3103 11.0067 -1.02773
1197 2 43.9075 11.251 0.666571
1198 2 45.5084 12.8457 0.735853
301 2 46.9574 13.8899 62.7263
1257 2 43.7802 14.0558 0.762065
302 2 -0.695773 15.4033 -2.70551
303 2 -1.86439 15.6689 -0.71743
307 2 0.82357 15.4957 -1.12266
361 2 -1.93377 17.1956 -2.4157
364 2 -0.389691 17.3326 -0.878885
1202 2 -0.262234 15.7487 0.77004
1261 2 -1.75001 17.6056 0.880626
1265 2 1.11713 17.5137 0.737387
306 2 2.94605 15.499 62.7591
311 2 4.14075 15.4424 -0.988165
368 1 2.32533 17.21 -1.33357
369 2 4.32163 17.2112 -2.67101
1206 2 2.3355 15.6798 0.487001
1269 2 3.87436 17.3206 0.305236
372 2 5.57564 17.2266 -0.938534
1210 2 5.81291 15.5685 0.50134
315 2 7.57377 15.5445 -1.326
316 2 9.4619 14.5652 -1.1531
373 2 7.13664 17.5032 -2.54754
376 2 8.95171 17.2649 -1.25866
1213 2 7.61228 14.4765 0.614945
1214 2 9.274 15.9981 0.47411
1273 2 7.34804 17.1707 0.189952
319 2 10.8213 16.3409 -1.42121
320 1 12.2747 14.6191 -1.3666
380 2 12.6274 17.3633 -0.80824
1217 2 11.0107 14.7291 0.50981
1218 2 12.7271 15.9189 0.824181
1277 2 10.9464 17.3278 0.646806
323 1 14.1926 15.7387 -1.26906
327 2 17.2896 15.6729 -1.02254
384 2 15.8425 17.3515 -1.37168
385 2 17.5763 17.1024 -2.77946
1222 2 15.6506 15.6746 0.467328
1281 2 14.4003 17.4347 0.444046
1285 2 17.4939 17.4366 0.11969
328 2 19.3266 14.7468 -1.28674
331 2 21.353 15.623 -1.21246
388 2 19.4085 17.095 -1.56249
389 2 21.3294 17.1362 -2.67441
1226 2 19.1763 16.126 0.406637
1229 2 20.637 14.4618 0.59739
1289 2 21.0573 17.1297 0.481617
334 1 25.5068 15.9827 -2.67259
335 2 23.9082 15.6111 -0.924987
336 2 25.671 14.4568 -0.710362
392 2 22.7831 17.4056 -0.902677
396 2 25.4084 17.1581 -0.784331
1230 2 22.4967 15.499 0.827957
1234 2 25.72 15.8423 1.00551
1293 2 23.9592 17.2655 0.920849
337 2 27.2363 14.4676 -2.65655
338 2 29.1111 15.6232 -2.57114
339 2 27.4098 15.5749 -0.848373
397 1 27.3562 17.3419 -2.32033
400 2 29.3332 17.2298 -1.1112
1238 2 29.279 15.5481 0.713214
1297 1 27.647 17.1679 0.689616
1301 2 30.7249 17.2552 0.6651
343 2 30.8124 15.6095 -1.08597
344 2 32.5325 14.2336 -1.29593
347 2 33.9913 15.8031 -1.24237
401 2 30.9385 17.4267 -2.56655
404 2 32.3674 17.3119 -0.920854
1242 2 32.413 15.637 0.581988
1245 2 34.2612 14.5963 0.486381
1305 2 33.9058 17.2962 0.787681
348 2 35.8535 14.7632 -1.36961
351 2 37.3017 16.2374 -1.38249
408 2 35.4618 17.3042 -1.27058
1246 2 35.7302 16.2928 0.52267
1249 2 36.9052 14.4814 0.517546
1309 2 37.2884 17.6733 0.458158
352 2 38.5046 14.4322 -1.35381
1250 2 38.6606 15.8299 0.452753
354 1 42.215 16.0848 -2.76761
355 1 40.3647 15.8081 -1.25212
412 1 39.0422 17.729 -1.26877
416 2 42.1287 17.4437 -0.901983
1254 2 42.114 15.573 0.458431
1313 2 40.6051 17.3199 0.528444
357 2 43.8107 14.3906 -2.74835
358 2 45.6269 15.6867 -2.6064
359 2 43.9178 15.6136 -0.851396
360 2 45.6206 14.3214 -0.943235
417 2 44.1961 17.3147 -2.3461
420 2 45.7275 17.1513 -0.594668
1258 2 45.5078 15.5723 0.949115
1317 1 43.7232 17.2728 0.748506
362 2 -0.56348 19.0493 -2.66967
363 2 -1.61946 19.1892 -0.776729
367 1 1.08814 19.1928 -1.06874
421 2 -1.78035 20.8471 -2.35809
424 2 -0.0610428 21.2178 -1.19124
1262 2 -0.117605 19.3622 0.856751
1321 2 -1.69215 21.0975 0.301747
1325 2 1.42536 20.9711 0.689282
1322 2 0.0479579 22.5765 0.421727
371 2 3.89945 19.1963 -1.11944
428 2 2.55572 21.0514 -1.13307
429 2 4.31835 20.8769 -2.46776
1266 2 2.70062 19.1338 0.610509
1329 2 3.9889 21.0433 0.461097
370 2 5.54396 19.066 -2.48939
432 2 5.67449 20.979 -0.783813
1270 2 5.53854 19.0102 0.192166
426 2 2.84702 22.5361 62.7401
374 2 8.84742 18.974 -2.6733
375 2 7.27073 19.1207 -0.957206
433 2 6.95825 20.6905 -2.51119
436 2 8.81904 20.6879 -1.34966
1274 2 9.01043 18.813 0.326204
1333 2 7.42853 20.7739 0.550178
1334 2 8.79687 22.3784 0.255914
378 1 12.7261 18.7048 -2.7168
379 1 10.7554 18.8679 -1.15175
437 2 10.7367 20.6268 -2.59557
440 2 12.4576 20.6546 -1.5289
1278 2 12.595 19.3117 0.198586
1337 2 10.5358 20.8444 0.0415344
1341 2 14.2751 20.895 -0.0732128
438 2 12.5444 22.2913 62.7425
1338 2 12.2985 22.1747 -0.0754408
382 2 15.8522 19.0285 -2.66658
383 2 14.3075 18.9707 -1.0606
387 2 17.7228 18.9975 -1.54206
441 2 14.2869 20.556 -2.66423
444 2 16.1076 20.7163 -1.41385
1282 2 16.1727 19.169 0.0630726
1345 1 17.9565 20.8646 0.0825869
443 2 14.241 22.3889 -1.58714
1342 2 15.9461 22.4849 -0.249069
391 2 21.1683 18.86 -1.3979
448 1 19.5815 20.8481 -1.53207
1286 1 19.4327 18.787 0.0672358
1349 2 20.6928 20.7112 0.359194
452 2 22.2315 20.7838 -1.15324
1290 2 22.2425 19.0277 0.666162
1350 2 22.1269 22.3303 0.581118
394 1 25.5101 18.9597 -2.35981
395 2 23.8338 19.2249 -0.785145
453 2 24.2724 20.975 -2.67907
456 2 25.5675 20.6823 -0.691024
1294 2 25.681 18.7809 0.466493
1353 2 23.8554 20.8365 0.727412
454 2 25.9504 22.2686 -2.45303
455 2 23.8369 22.2113 -0.940895
1354 2 25.5091 22.1856 0.983104
398 2 29.1073 19.0594 -2.26786
399 2 27.4281 18.9161 -0.74972
457 2 27.1998 20.5561 -2.27783
460 2 29.0643 20.815 -0.994556
1298 2 29.2789 18.9483 0.336989
1357 2 27.4503 20.5819 0.465273
461 2 30.7913 20.8309 -2.43612
459 2 27.1443 22.3897 -0.612047
463 2 30.6436 22.4466 -1.0445
403 2 30.9863 19.0533 -1.10782
407 2 33.9764 18.8831 -0.903816
464 2 32.7272 20.6874 -1.0042
1302 1 32.2494 18.9855 0.844916
1361 1 30.8879 20.7642 0.49818
1365 2 34.0284 20.6016 0.734035
462 2 32.4206 22.4653 -2.23678
467 2 34.2589 22.3686 -0.905735
411 2 36.986 18.8776 -1.27472
468 2 35.5591 20.4828 -0.871311
1306 2 35.5621 18.843 0.816323
1369 2 37.4396 20.4309 0.526713
466 2 35.9932 22.2493 -2.32967
471 2 37.6026 22.1766 -0.908439
1366 2 35.9709 22.3422 0.386741
414 2 42.5365 18.8047 -2.68116
415 2 40.863 19.0889 -1.22505
472 1 38.8635 20.3347 -1.37386
476 2 42.2143 20.6586 -1.04245
1310 2 39.096 18.9274 0.60427
1314 2 41.7723 19.049 0.826108
1373 1 40.3028 20.8649 0.375177
474 1 42.2573 22.3125 -2.62959
475 2 40.3897 22.3357 -1.40648
418 1 45.7425 19.0393 -2.25746
419 2 43.7398 19.0172 -0.820723
477 2 44.0085 20.6124 -2.35688
480 2 45.5889 20.8332 -0.806562
1318 2 45.5841 19.0738 0.415937
1377 2 43.8452 20.856 0.273797
478 2 45.4747 22.3079 -2.43923
423 2 -1.88096 22.7517 -1.31932
427 2 1.64885 23.055 -1.03698
483 2 -1.62744 25.6436 -1.13578
484 2 -0.270589 24.0321 -1.21922
487 1 1.08805 25.7846 -1.13231
1381 2 -1.73104 23.851 0.559829
1382 2 -0.64619 25.6577 0.780182
1385 2 1.20985 24.4304 0.828085
431 2 4.26143 22.7875 -0.881314
488 2 3.16278 24.5748 -0.943418
491 2 4.56303 26.1682 -1.05296
1326 2 2.68008 22.8031 0.824007
1386 2 2.64516 26.0811 0.696154
1389 2 4.24603 24.4599 0.862333
430 2 5.50691 22.638 -2.65441
492 2 5.84117 24.3653 -1.17118
1330 1 6.0389 22.9573 0.715435
1390 2 5.97579 25.7829 0.684886
435 2 7.18587 22.5701 -1.26907
495 2 7.36757 25.9483 -1.26509
496 2 8.6511 24.1935 -1.49821
1393 2 7.7955 24.3903 0.413369
1394 2 9.34895 25.9079 0.291708
1397 2 10.3906 23.9637 0.0795967
439 2 10.5819 22.4533 -1.44704
498 2 12.6307 25.7169 -2.59745
499 2 10.6545 25.542 -1.53203
500 2 12.3002 23.9338 -1.38193
1398 2 12.059 25.6136 0.167577
501 2 14.2367 24.1794 -2.60221
503 2 14.0236 25.6866 -0.859265
1401 2 13.9454 23.7249 0.0995278
447 2 17.792 22.5808 -1.53478
504 2 15.8115 24.3929 -1.1665
507 2 17.4907 25.7354 -0.894173
1402 2 15.7861 25.6033 0.605854
1405 2 17.6361 23.8647 0.290136
451 2 21.0265 22.6831 -1.28984
508 2 19.3588 24.1062 -1.36576
511 2 21.0917 25.3389 -1.17261
1346 2 19.5411 22.603 0.39226
1406 2 19.268 25.3641 0.473046
1409 2 21.041 24.2019 0.584386
512 2 22.7318 24.0619 -1.24063
514 2 25.4916 25.6446 -2.58137
515 2 24.2057 25.521 -0.922812
516 2 25.4131 23.7691 -0.785032
1410 2 22.7228 25.5443 0.748727
1413 2 23.8373 23.6441 0.896563
1414 2 25.5061 25.6787 0.804716
458 2 28.6753 22.5537 -2.20872
517 2 27.0646 24.0942 -2.40137
518 2 28.8212 25.7216 -2.49505
519 2 27.0308 25.6539 -0.857894
520 2 28.7835 24.2483 -0.816651
1358 2 29.1623 22.5855 0.558296
1417 2 27.1134 24.1366 0.732133
1418 2 28.9873 25.9819 0.393139
521 2 30.5004 24.2661 -2.18116
522 1 32.3159 25.793 -2.63775
523 2 30.664 26.0784 -0.965817
524 2 32.4232 24.1207 -0.964411
525 2 34.2677 24.1469 -2.17426
527 2 33.9037 25.8619 -0.799052
1362 2 32.5482 22.4165 0.429692
1421 2 30.7353 24.2028 0.342507
1422 2 32.349 26.0133 0.67206
1425 2 34.1432 24.2104 0.533745
526 2 35.6641 25.8198 -2.48124
528 2 35.8522 24.1915 -0.758858
529 2 37.4378 23.9636 -2.25471
531 1 37.5834 25.9837 -1.11973
1426 2 35.8998 25.9952 0.59006
1429 2 37.583 24.2798 0.490117
1370 2 38.8997 22.657 0.58677
532 2 39.2408 24.132 -1.12467
535 2 40.3334 26.0549 -1.02646
536 1 41.9136 24.3209 -1.30212
1374 2 42.0258 22.5602 0.19933
1430 2 39.2617 25.6835 0.762633
1433 2 40.5774 24.0412 0.635384
1434 2 42.0737 25.6191 0.589129
479 2 43.8459 22.6151 -0.932721
537 2 43.8919 24.1356 -2.54869
539 2 43.9582 25.8155 -1.21506
540 2 45.6877 24.3406 -1.35667
1378 2 45.5949 22.7053 0.16667
1437 2 43.8041 24.3577 0.35058
1438 2 45.8266 25.4491 0.468148
543 2 -1.77255 29.2136 -1.28546
544 2 -0.46905 27.4673 -1.10956
547 2 1.17682 28.8472 -1.10948
1441 2 -1.7579 27.4345 0.632937
1442 1 -0.444933 29.2732 0.600141
1445 2 0.822815 27.3422 0.691864
1505 2 1.53799 30.6387 0.769797
548 2 2.7305 27.3753 -1.08573
551 2 4.19674 28.9649 -1.2413
1446 2 2.52433 28.6707 0.730869
1449 2 4.36696 27.5677 0.551044
552 2 6.02674 27.7044 -1.25428
1450 2 6.08534 28.9512 0.555257
608 2 2.66629 30.52 -1.00683
1509 2 4.08996 30.1908 0.790008
612 1 5.88169 30.4994 -1.19493
555 2 7.69242 28.9753 -1.43066
556 2 9.13453 27.2954 -1.47794
1453 2 7.58116 27.2862 0.467149
1454 1 9.12142 29.0169 0.350804
1513 2 7.51699 30.6423 0.440096
557 2 11.0497 27.3994 -2.64728
558 2 12.5784 29.2797 -2.52832
559 2 10.6097 29.1439 -1.44271
560 2 12.5993 27.426 -1.15617
1457 2 10.8859 27.461 0.17821
1458 2 12.3207 29.2309 0.0622927
563 2 14.2158 29.2652 -1.10616
1461 2 13.953 27.4591 0.545244
564 1 15.6499 27.3269 -1.13149
565 1 17.3567 27.2005 -2.74493
567 1 17.4064 29.0191 -1.04941
1462 2 15.7792 29.2988 0.487884
1465 2 17.579 27.3708 0.578031
566 2 19.1985 29.0417 -2.5285
568 1 19.316 27.1805 -1.07245
569 2 21.1579 27.0971 -2.60244
571 2 20.9541 28.8658 -1.32795
1466 2 19.3496 29.1835 0.23901
1469 2 21.2411 27.0758 0.291108
1470 2 22.3381 28.9421 0.252039
570 2 22.8077 29.0085 -2.47274
572 2 22.8568 27.1567 -1.2629
573 2 24.5366 27.4544 -2.63822
574 2 25.6042 29.2751 -2.53974
575 2 24.226 29.0352 -0.814447
576 2 25.5049 27.3066 -0.751305
1473 2 23.9277 27.3202 0.80749
1474 1 25.867 29.0848 0.824398
577 2 27.0919 27.325 -2.38361
578 1 28.8396 29.5307 62.6925
579 1 27.288 29.3319 -1.12293
580 2 28.9677 27.6144 -1.27023
1477 2 27.4939 27.5323 0.375734
1478 2 28.8513 29.4416 0.59846
583 1 30.6081 29.374 -1.19346
1481 1 30.5396 27.8952 0.734612
584 1 32.3102 27.7211 -1.0345
587 2 34.1585 29.0561 -1.06093
1482 2 32.4294 29.2627 0.794778
1485 2 34.0565 27.6995 0.772079
644 2 32.602 30.5173 -1.07765
645 2 34.0262 30.5359 62.7129
1541 2 30.7567 30.7396 0.808457
1545 1 34.4566 30.309 0.787795
588 2 35.4118 27.3279 -0.920434
591 2 37.0578 28.5838 -0.953348
1486 2 36.0708 28.6229 0.932517
1489 2 37.6954 27.1813 0.977416
590 2 38.9176 28.6487 62.7257
592 2 38.9616 27.7544 -0.852262
1490 2 38.8428 29.0617 0.84961
648 2 35.975 30.3254 -1.16598
1549 2 37.0938 30.482 0.643626
652 2 38.6088 30.1994 -1.00986
593 2 40.6724 27.5962 -2.71651
594 2 42.418 28.9596 -2.55188
595 2 40.7938 28.6415 -0.841882
596 2 42.3317 27.1513 -0.903737
1493 2 40.442 27.3779 0.983764
1494 2 42.4193 28.8637 0.575897
653 2 40.4397 30.2923 -2.48328
656 2 42.1639 30.4948 -0.955894
1553 2 40.3727 30.4724 0.234201
597 2 44.0945 27.3586 -2.75236
599 1 44.1523 28.7933 -0.937284
600 1 45.9227 27.297 -1.1405
1497 2 44.2531 27.0376 0.537452
1498 2 45.9836 29.1203 0.502663
657 2 43.8893 30.6947 -2.45221
660 2 45.8011 30.785 -1.19582
602 2 0.250289 32.4395 62.7163
603 2 -1.6027 32.2949 -1.47365
604 2 0.0203025 30.7825 -1.24903
607 2 1.60587 32.3702 -0.987916
661 2 -1.69503 34.1399 -2.53063
664 2 0.0980565 34.1176 -1.35456
665 2 1.8243 34.2961 -2.60888
1502 2 0.00987652 32.2017 0.458773
1561 1 -1.68062 33.7852 0.279384
1565 2 1.25214 34.0682 0.573953
611 2 4.20008 32.0371 -1.10483
668 2 3.07395 33.9938 -0.719659
669 2 4.28642 34.005 -2.51098
1506 2 3.04675 32.3219 0.761361
1569 2 4.56463 34.0174 0.931875
672 2 5.68351 33.7077 -0.920639
1510 1 5.68139 31.9194 0.848709
615 2 7.24425 32.3154 -1.38487
616 2 8.93305 30.8211 -1.29891
676 2 8.71776 33.85 -0.980858
1514 2 8.95316 32.2468 0.439021
1573 2 7.27996 33.6253 0.669685
617 2 10.7954 31.0207 -2.5733
618 1 12.3524 32.898 -2.66757
619 2 10.6798 32.6949 -1.07635
620 2 12.4512 30.9554 -1.22198
677 2 10.6829 34.4569 -2.55899
680 2 12.4928 34.599 -0.900968
1517 2 10.7008 30.8918 0.0426452
1518 2 12.5625 32.6471 -0.000205667
1577 2 10.6277 34.2677 0.330601
621 2 14.0452 30.9862 -2.75428
623 2 14.2521 32.7409 -1.52905
1521 2 14.2538 31.1256 0.0975942
1581 2 14.3001 34.1225 0.156526
624 2 15.8907 30.8545 -1.41909
625 2 17.6914 30.802 -2.6646
627 2 17.8036 32.6623 -1.5746
681 2 14.2774 34.5429 -2.63486
684 2 16.0986 34.3711 -1.5377
1522 2 16.0212 32.7618 -0.0264369
1525 2 17.5619 31.1263 0.0957534
1585 2 17.9672 33.9047 0.21572
628 2 19.3085 30.8418 -1.20718
629 2 21.1139 30.7176 -2.41613
631 2 21.2727 32.5108 -1.109
688 2 19.6059 33.9378 -1.50665
1526 2 19.604 32.5403 0.221428
1529 2 21.0058 30.7715 0.348775
1589 2 21.0976 34.1465 0.50689
632 2 22.8005 30.7724 -0.954806
633 2 24.1376 30.8008 -2.73521
634 2 25.4358 32.6792 -2.67521
635 2 24.0027 32.7053 -1.05826
636 2 25.4664 31.0047 -0.893219
692 2 22.5936 34.2732 -1.11085
696 2 25.5007 34.2874 -0.817859
1530 2 22.6936 32.5422 0.595028
1533 2 24.1044 30.8453 0.713965
1534 2 25.3151 32.6775 0.842498
1593 2 23.8639 34.5678 0.695257
637 2 26.982 31.1981 -2.65029
639 2 27.0111 32.4888 -0.654954
640 2 28.8165 31.0842 -0.888096
697 1 27.3211 33.9549 -2.42881
700 1 29.0437 33.7402 -0.842773
1537 2 27.2453 30.9543 0.829524
1538 2 29.0861 32.174 0.840492
1597 2 27.2531 34.3788 0.520623
642 2 32.498 32.0485 -2.59531
643 2 30.7581 31.8322 -1.04794
647 2 34.4869 31.9021 -1.13598
701 2 30.9341 33.5829 -2.36791
704 2 32.888 33.5667 -1.11845
705 2 34.5886 33.567 -2.5306
1542 2 32.7476 32.0612 0.45301
1601 1 31.0461 33.7667 0.319278
1605 2 34.4702 33.9997 0.39622
651 2 37.0852 32.1413 -1.25211
708 2 36.084 34.0113 -1.18177
709 2 37.6032 33.787 -2.67297
1546 2 35.8178 32.2697 0.480647
1609 2 37.1187 33.9959 0.623385
650 2 38.7156 31.824 -2.58296
712 2 38.8287 33.9354 -0.985185
1550 1 38.571 32.1521 0.466387
654 2 41.9464 32.2443 -2.52029
655 2 40.259 32.1914 -1.12178
713 2 40.1059 33.7234 -2.77503
716 2 41.6545 33.9964 -0.954259
1554 2 42.1034 32.2719 0.205812
1613 2 40.2004 33.903 0.785324
1501 2 -1.89362 31.0138 0.372841
658 2 45.5376 32.4588 -2.49477
659 2 43.7784 32.3754 -1.13383
717 2 43.5729 34.1089 -2.36143
720 2 45.6015 34.1291 -1.13121
1557 2 44.043 30.6892 0.186687
1558 2 45.5432 32.4077 0.140541
1617 2 43.8093 34.0497 0.252823
662 2 0.0739713 36.0777 -2.34514
663 2 -1.94933 35.7549 -1.14375
667 2 1.70809 35.7855 -0.844519
724 2 -0.241388 37.507 -0.78772
725 2 1.63643 37.604 -2.53217
1562 2 -0.155424 35.7155 0.27656
1621 2 -2.04289 37.4088 0.224538
1625 2 1.51599 37.629 0.491768
722 2 -0.334272 38.6572 -2.57993
666 2 3.14248 35.9625 -2.63226
671 2 4.4195 35.7067 -0.53165
728 2 3.22867 37.5465 -0.953084
729 2 4.62788 37.8763 -2.51397
1629 2 4.53746 37.5056 1.00497
670 2 5.3625 35.862 -2.47508
732 2 5.86933 37.4391 -0.690058
674 2 8.77491 35.383 -2.60595
675 2 7.06775 35.4235 -1.1997
733 2 7.15295 37.3671 -2.39863
736 2 8.97979 37.0893 -1.36516
1570 2 6.24923 35.5845 0.715088
1574 2 8.85607 35.5642 0.219784
1633 2 7.70047 37.2991 0.410586
679 2 10.726 35.8643 -1.0491
740 2 12.5395 37.2471 -1.09795
1578 2 12.4604 36.0342 0.747397
1637 2 10.6348 37.2142 0.568766
739 2 10.6683 38.527 -1.09916
1638 2 12.4306 38.697 0.638242
683 2 14.3413 35.9597 -0.99896
687 2 17.9735 35.5396 -1.24475
744 2 16.2112 37.2324 -1.16456
745 2 17.7526 37.5897 62.6151
1582 2 16.1821 35.4692 0.360896
1641 1 14.3914 37.3984 0.827454
1645 2 17.8602 37.0964 0.320736
743 2 14.3006 38.5059 -1.21669
1642 2 16.305 38.7395 0.489484
691 1 20.8548 35.8687 -1.3093
748 2 19.2929 37.5837 -1.30814
1586 2 19.4897 35.5735 0.433158
1649 2 20.5209 37.55 0.650019
752 2 22.3191 37.6742 -1.08438
1590 2 22.1731 36.1237 0.719127
1650 2 22.3435 38.8177 0.628165
694 1 25.6338 35.8064 -2.67738
695 1 23.9653 36.0865 -1.13392
756 2 25.8604 37.5453 -1.13737
1594 2 25.7891 36.1454 0.62537
1653 2 24.0235 37.4178 0.769962
755 2 24.1955 38.7202 -1.22648
1654 2 26.0217 38.671 0.64045
698 2 29.2465 35.4633 -2.37884
699 1 27.4289 35.9235 -1.1509
760 2 29.5658 37.3849 -1.45016
1598 2 29.407 35.9008 0.193101
1657 2 27.8602 37.4712 0.529027
759 2 27.7906 38.6155 -1.25986
1658 2 29.7443 38.5612 0.378307
702 2 32.9226 35.1336 -2.52461
703 2 31.0898 35.3971 -1.34416
707 2 34.5473 35.6397 -1.08531
764 2 32.7863 36.9646 -1.38195
1602 2 32.7502 35.3637 0.298065
1661 2 31.2858 36.9286 0.466977
1665 2 33.9666 37.17 0.64496
763 2 31.3906 38.6255 -1.19243
767 2 34.028 38.716 -0.959353
1662 2 32.4642 38.725 0.789565
711 2 37.4275 35.8222 -1.07987
768 2 36.0108 37.4657 -0.976885
1606 2 35.8816 35.8735 0.673687
1669 2 37.5074 37.5573 0.803161
772 2 38.8346 37.4728 -1.19154
1610 1 38.6793 35.5951 0.857336
1666 1 35.5693 38.8483 0.919393
715 2 40.0274 35.6471 -1.04119
776 2 41.6834 37.2734 -1.21709