ITEM: TIMESTEP
3500
ITEM: NUMBER OF ATOMS
18000
ITEM: BOX BOUNDS pp pp pp
-5.1837032653574866e+00 5.0183703265357593e+01
-5.1837032653574866e+00 5.0183703265357593e+01
-6.9116043538101550e+00 6.6911604353809906e+01
ITEM: ATOMS id type x y z
2 2 -3.35674 -3.25581 -6.84001
64 2 -3.41317 -1.38348 -5.02706
5 2 -1.66989 50.3528 67.0397
7 2 -1.61726 -3.34449 -4.87351
6 2 0.308508 -3.0766 -6.71909
8 2 0.2695 50.3646 -4.82786
11 2 2.036 -3.21543 -4.86185
9 2 2.00301 50.4263 67.1008
910 1 3.86922 -3.40405 -3.0718
12 2 3.95034 50.2094 -4.96062
913 2 5.87593 50.0429 -3.37369
10 2 4.03287 -3.13805 -6.90612
15 2 5.90531 -3.31756 -5.00152
76 2 7.50861 -1.43541 -4.93793
914 2 7.67043 -3.39484 -3.19009
19 1 9.38005 -3.32371 -5.0272
80 2 11.5178 -1.59622 -4.98954
23 2 13.2328 -3.30135 -4.91876
27 2 16.9232 -3.28554 -4.96623
31 2 20.5364 -3.22739 -5.04535
88 2 18.6913 -1.41549 -5.07457
28 2 18.7441 50.2007 -5.09139
30 1 22.4034 -3.15644 -6.82165
92 2 22.4896 -1.23897 -5.21168
32 2 22.3254 50.3972 -5.0541
35 2 24.4313 -2.99502 -5.0035
93 2 24.3757 -1.44986 -7.06136
36 1 26.2466 50.3039 -4.89588
39 2 28.0596 -3.21423 -4.96426
40 2 29.8889 -5.02393 -4.93112
100 2 29.9808 -1.60206 -4.97891
38 2 30.0809 -3.25741 -6.90335
43 2 31.7825 -3.39929 -4.89366
42 2 33.73 -3.37068 67.0567
44 2 33.6002 50.2563 -4.87179
101 2 31.8474 -1.53992 66.935
104 1 33.6947 -1.53083 -4.96634
41 2 31.7903 -5.12621 -6.76293
45 2 35.4541 -5.08467 -6.7962
47 2 35.6249 -3.4631 -4.83548
46 2 37.3392 -3.37416 -6.86486
49 2 38.9373 -5.18727 -6.72841
51 2 38.8672 -3.55398 -4.86392
108 2 37.2828 -1.46294 -5.0205
55 2 42.6774 -3.40553 -5.19605
50 2 40.9896 -3.40046 -6.88027
113 2 42.6952 -1.56373 -6.93208
116 2 44.5017 -1.64983 -5.0248
59 2 46.3752 -3.46421 -5.1598
54 2 44.5389 -3.36733 -6.94998
117 2 46.1693 -1.55208 -6.93013
3 2 50.1434 -3.23169 -5.05139
58 2 48.1851 -3.24573 -6.87268
124 1 -3.42588 2.05312 -4.97079
125 2 -1.64303 2.27511 -6.83765
61 2 -5.05496 -1.51338 -6.88481
65 2 -1.63987 -1.48015 -6.66181
62 2 -3.45122 0.349838 -6.95949
68 2 0.381997 -1.39955 -4.91038
67 2 -1.51798 0.376518 -4.88716
69 2 2.21646 -1.43803 -6.76407
72 2 4.02096 -1.38232 -5.07307
71 2 2.09307 0.306516 -4.84168
973 2 5.83391 -1.46072 -3.01686
75 2 5.88583 0.358329 -5.00649
974 2 7.61159 0.204109 -3.05555
79 2 9.74019 0.153211 -5.1188
140 2 11.4839 2.18353 -4.97033
84 2 15.0878 -1.57715 -5.0216
83 2 13.4264 0.359634 -4.7623
144 2 15.0743 2.2074 -4.95023
87 2 16.9723 0.206913 -4.81271
91 2 20.5298 0.272173 -5.07332
148 1 18.9125 2.05322 -4.96067
152 2 22.5223 2.12783 -4.92541
95 2 24.4035 0.402756 -5.09042
96 2 26.2598 -1.32609 -5.1292
94 2 26.2506 0.3006 66.7746
156 1 26.4987 2.00047 -4.92743
99 2 28.1639 0.174619 -5.1118
160 2 29.9539 2.09708 -5.18856
103 2 31.6702 0.270622 -5.22405
165 2 35.4984 2.19725 66.9842
109 2 39.042 -1.47039 -6.83286
107 2 35.691 0.52361 -4.97926
106 2 37.3292 0.397097 -6.75634
111 2 39.1702 0.433405 -5.06105
112 2 40.9483 -1.62658 -4.97741
115 1 42.7384 0.445346 -5.04868
119 2 46.3592 0.115038 -5.08474
114 2 44.5492 0.392452 -6.87006
177 2 46.264 2.10579 -6.91754
120 2 48.2232 -1.4616 -5.1164
63 2 50.0016 0.179956 -4.93548
118 2 48.2474 0.398716 -6.71907
122 2 -3.56866 3.9711 -6.68555
127 2 -1.55818 3.90055 -4.92569
185 2 -1.70246 5.7174 -6.73432
128 1 0.313805 2.11777 -4.9933
132 2 3.97458 2.1899 -5.0668
131 2 2.21834 3.93501 -5.12368
135 2 5.80849 4.03837 -5.20092
192 2 4.05944 5.80993 -5.14203
1093 2 5.7121 5.79131 -3.35933
136 2 7.78593 2.08858 -5.17235
196 2 7.68412 5.75608 -5.36479
139 2 9.53982 3.78966 -5.03268
197 2 9.80122 5.54737 -6.94301
200 2 11.5666 5.85232 -5.33218
138 2 11.4992 3.83827 -6.84595
143 2 13.3338 3.98306 -4.9844
147 1 16.9547 3.98811 -4.8318
141 2 13.3217 2.16678 -6.66622
208 2 18.9447 5.68553 -5.13331
155 1 24.4823 3.97111 -4.92055
151 2 20.7897 3.87998 -5.00308
212 2 22.8045 5.89763 -4.89559
216 2 26.4364 5.86237 -4.9782
158 2 29.931 3.95439 66.9509
159 2 28.2399 3.81618 -5.00122
220 2 29.8149 5.78724 -4.88628
163 2 31.7346 3.88429 -4.98229
164 2 33.6214 2.0466 -4.98473
167 2 35.3395 4.09875 -4.92084
162 2 33.5226 3.89649 67.2053
168 2 37.3328 2.28362 -4.95791
169 2 39.1255 2.30038 -6.69285
171 2 39.1084 4.11003 -4.84767
166 2 37.3726 4.09317 67.1787
229 2 39.245 5.94787 -6.6515
172 2 40.9908 2.29205 -5.08437
170 2 41.0107 4.18513 -7.01949
175 1 42.9379 4.03762 -4.96358
232 2 41.0608 5.92653 -4.7959
233 2 42.8789 5.88436 -6.96716
176 2 44.6051 2.08143 -4.91068
179 2 46.2938 3.98238 -4.93363
174 2 44.5679 4.04126 66.8138
180 2 48.0553 2.0884 -4.88409
123 2 -5.52424 3.68138 -4.9037
182 2 -3.47375 7.52733 -6.75068
184 2 -3.46679 5.80014 -5.00693
187 2 -1.70403 7.35237 -4.83677
183 2 -5.21766 7.70427 -4.83213
188 2 0.367728 5.64874 -5.13527
248 2 0.286393 9.28233 -5.10367
186 2 0.272451 7.38251 -6.83646
191 2 2.1402 7.57509 -5.27171
252 2 4.05765 9.35453 -5.2945
195 2 5.96614 7.62769 -5.24545
256 2 7.84662 9.42598 -5.10314
199 2 9.59589 7.70262 -5.33064
203 2 13.291 7.70748 -5.39596
260 2 11.3422 9.61618 -5.45242
204 1 15.2028 5.86886 -5.13258
264 2 15.1687 9.48139 -5.31051
207 2 17.1994 7.6604 -5.23064
206 2 18.795 7.60428 -6.92952
265 2 16.9097 9.56097 -7.0067
1165 2 16.9324 9.57598 -3.60093
211 2 20.8664 7.57027 -5.03672
1169 1 20.927 9.33819 -3.25781
210 2 22.7389 7.71665 -6.83806
215 2 24.5533 7.60725 -4.87538
217 2 27.9785 5.84602 -6.771
219 2 28.1199 7.77783 -4.95615
223 2 31.5518 7.62836 -4.91589
280 2 29.9618 9.47244 -4.93723
224 2 33.5082 5.73426 -4.97106
225 2 35.5526 5.92589 67.0725
227 2 35.4082 7.68914 -5.0521
284 1 33.6292 9.62639 -4.98819
228 2 37.2845 5.9614 -4.94702
231 2 39.2678 7.86469 -4.85814
288 2 37.2479 9.61948 -4.99424
1189 2 39.0999 9.68121 -3.16153
289 2 39.1585 9.63584 -6.91677
292 2 40.9762 9.61714 -4.86673
235 2 42.7593 7.86484 -5.06175
236 2 44.5512 5.96325 -5.03169
293 2 42.991 9.53106 -6.92138
296 2 44.692 9.56216 -4.86997
239 2 46.4796 7.61892 -4.77516
240 2 48.1941 5.69635 -4.76923
300 2 48.403 9.48823 -4.91836
1197 2 46.5947 9.52788 -3.11269
244 2 -3.44677 9.36454 -5.06839
304 2 -3.52577 13.3034 -5.00389
243 2 50.1624 11.4172 -4.79848
247 2 -1.38147 11.2429 -5.0881
251 2 2.13836 11.3565 -5.21297
308 2 0.142463 13.1982 -5.41297
312 2 4.07549 13.2552 -5.10694
255 1 5.95729 11.4152 -5.22745
259 2 9.55622 11.2529 -5.13505
316 2 7.92054 13.363 -5.25274
320 1 11.3664 13.1551 -5.2971
263 2 13.3382 11.3798 -5.23183
267 2 16.9975 11.3605 -5.24106
324 2 15.1349 13.0551 -5.24285
266 2 18.8769 11.1923 66.9723
268 2 18.9487 9.30098 -5.27333
271 2 20.9014 11.2432 -5.03766
328 2 18.9568 12.9982 -5.3236
329 2 20.7602 13.1317 66.9027
269 2 20.7559 9.39731 -6.73862
270 2 22.5629 11.0727 -6.82993
272 2 22.7187 9.35218 -4.96364
1170 2 22.7786 11.3027 -3.25819
275 2 24.7334 11.2413 -5.01311
276 2 26.4531 9.66191 -5.04199
336 2 26.4465 13.3664 -4.97341
279 2 28.1426 11.4757 -5.08947
340 2 29.8013 13.3141 -4.89783
283 2 31.6438 11.4823 -4.94457
287 1 35.5598 11.3644 -4.8911
344 2 33.6703 13.3077 -5.14522
345 2 35.7526 13.3416 67.0926
291 2 39.0489 11.4193 -5.00798
348 2 37.3455 13.3552 -4.82919
286 2 37.3352 11.3083 66.9582
349 1 39.1306 13.144 -6.69239
352 2 41.1014 13.045 -4.77703
290 1 41.1107 11.3025 -6.82831
295 2 43.0046 11.3407 -4.99284
356 2 44.7343 13.1618 -5.01099
299 2 46.5111 11.3732 -4.86782
360 2 48.2207 13.168 -4.90427
303 2 50.2046 15.1624 -5.12111
364 2 -3.54917 17.0147 -5.03131
307 2 -1.66215 15.1541 -5.23962
368 1 0.246957 17.0159 -5.1665
311 2 2.15825 14.9551 -5.14259
372 2 3.89161 16.7917 -5.23028
315 2 5.77697 15.049 -5.42788
376 2 7.62134 16.8921 -5.19714
1273 2 5.86538 16.7935 -3.47079
319 2 9.62781 15.2392 -5.30445
380 2 11.4726 16.9124 -5.20382
1277 2 9.76102 16.7829 -3.36628
323 1 13.4252 15.0308 -5.23214
327 2 17.0242 14.9683 -5.19322
384 2 15.1926 16.9805 -5.23047
385 2 16.9119 16.8404 -6.92666
331 2 20.7651 14.9239 -5.12251
326 2 18.8733 14.9286 66.7652
332 2 22.5098 12.9634 -5.07651
335 2 24.1984 15.0433 -4.9654
330 2 22.5349 15.124 67.0152
334 1 26.0876 15.0976 -6.90996
1234 2 26.1743 15.1277 -3.23496
1233 2 24.491 13.3123 -3.11376
339 2 28.2472 14.9905 -4.86428
343 2 31.8375 14.9717 -5.01388
347 2 35.6175 15.0841 -4.99609
405 2 35.7572 16.8765 67.1619
351 2 39.225 15.1891 -4.88006
408 2 37.5617 16.9866 -5.07074
409 2 39.241 17.0211 67.0034
412 1 41.0627 17.0904 -4.94776
350 1 41.1235 14.9781 67.0103
355 1 42.9144 15.1439 -4.91607
416 2 44.7229 17.1092 -5.17921
417 2 46.4796 16.8229 66.9155
358 2 48.2306 14.9044 66.8588
359 2 46.5056 15.042 -5.15849
420 2 48.2818 16.9811 -5.20218
363 2 -5.29269 18.9142 -4.99035
367 1 -1.59381 18.9047 -5.30578
1321 2 50.2512 20.9138 -3.21362
428 2 0.362275 20.5888 -5.18253
1329 2 2.13846 20.6431 -3.30083
371 2 2.11969 18.7323 -5.20344
432 2 3.99679 20.542 -5.21136
1270 2 4.04023 18.8025 -3.42548
375 2 5.90884 18.6356 -5.37214
436 2 7.66597 20.5672 -5.20631
1274 2 7.80085 18.7141 -3.46969
1333 2 5.89693 20.4235 -3.36191
1337 2 9.56458 20.5195 -3.29407
379 1 9.53488 18.7401 -5.34608
1278 2 11.3639 18.6203 -3.16946
383 2 13.278 18.8509 -4.95458
382 2 15.0205 18.8191 66.9195
387 2 17.039 18.8451 -5.302
388 2 18.8174 16.7366 -5.35698
389 2 20.7767 16.8647 -7.07026
391 2 20.5914 18.8508 -5.1539
386 2 18.8766 18.786 -7.07829
392 2 22.5028 16.9521 -5.04301
395 2 24.0938 18.9599 -5.04132
393 2 24.1101 17.0314 66.9292
396 2 25.8889 16.9098 -4.93648
394 1 26.0523 18.809 66.9916
1294 2 26.1594 18.8987 -3.091
397 1 28.0066 16.903 67.1069
400 2 29.9642 16.9844 -5.00901
1297 1 27.8343 16.9404 -3.39713
399 2 28.1857 18.8683 -5.06187
404 2 33.6434 16.8154 -5.06971
403 2 31.6692 18.6463 -4.96299
407 2 35.6025 18.8604 -4.92263
1365 2 35.3525 20.751 -3.20855
468 2 37.3273 20.871 -4.98701
411 2 39.033 19.0023 -4.90615
472 1 41.0301 20.7314 -4.97764
410 2 41.0667 18.8653 66.9607
415 2 42.9078 18.9703 -5.00488
419 2 46.4914 18.7734 -5.1522
477 2 46.5375 20.6413 67.0978
418 1 48.4889 18.7961 66.8518
480 2 48.243 20.7695 -5.0677
424 2 -3.40196 20.7891 -5.1255
1322 2 -3.29066 22.6859 -3.14194
484 2 -3.14941 24.46 -5.15005
1381 2 50.3517 24.4156 -3.31725
427 2 -1.37411 22.5373 -5.0586
431 2 2.43974 22.4803 -5.11656
488 2 0.677578 24.3288 -5.10614
430 2 4.24976 22.3235 -6.82852
492 2 4.17653 24.4936 -5.08276
493 2 5.90393 24.4535 66.8022
435 2 6.04632 22.4123 -5.25533
496 2 7.58685 24.2451 -5.26116
440 2 11.3758 20.4556 -5.05933
1341 2 13.1719 20.7877 -3.30338
443 2 13.3222 22.492 -5.09827
439 2 9.34959 22.2738 -5.14898
444 2 15.0993 20.6894 -5.09274
447 2 16.8728 22.677 -5.16751
445 2 16.7768 20.6761 66.8427
448 1 18.6756 20.7467 -5.16016
451 2 20.4592 22.7798 -5.0929
446 2 18.6954 22.6295 -6.90278
452 2 22.4126 20.8144 -5.01601
453 2 24.4081 20.7562 -6.78271
455 2 24.4489 22.5873 -5.08197
456 2 26.1095 20.6228 -4.85857
1353 2 24.2382 20.7947 -3.16145
1354 2 26.2101 22.4584 -3.1384
460 2 29.8788 20.6007 -5.05389
1357 2 28.0418 20.6378 -3.1354
459 2 27.9598 22.4314 -4.99052
1358 2 29.7973 22.5608 -3.33523
461 2 31.7728 20.8327 -6.66939
463 2 31.8144 22.9031 -4.86832
464 2 33.5202 20.8531 -4.93342
521 2 31.7484 24.4376 -6.66391
524 2 33.6975 24.6259 -4.80831
467 2 35.4674 22.5871 -4.91939
528 2 37.2751 24.5227 -4.72244
471 2 39.1953 22.6962 -5.04803
475 2 42.8047 22.5387 -5.01981
476 2 44.6251 20.7136 -5.08541
474 1 44.6914 22.619 66.8737
423 2 -5.07055 22.7104 -4.96305
479 2 46.3216 22.5812 -4.98787
540 2 48.3838 24.3844 -4.84527
483 2 -5.15194 26.167 -5.08901
541 1 -5.08828 28.0433 66.8662
487 1 -1.15642 26.1333 -5.1219
491 2 2.41486 26.18 -5.2332
490 2 4.09228 26.2527 -7.23797
495 2 5.94796 26.2617 -5.09981
499 2 9.51228 25.9921 -5.26804
500 2 11.2168 24.0419 -5.28269
503 2 12.9425 26.0162 -5.20627
560 2 11.2026 27.8665 -5.15591
504 2 14.9261 24.5511 -5.18639
507 2 16.7692 26.1316 -4.86866
564 1 14.764 27.905 -5.24467
565 1 16.8352 27.8382 66.8673
508 2 18.8289 24.6456 -5.08715
511 2 20.6613 26.1722 -5.0365
506 2 18.9777 26.2827 66.9533
509 2 20.6433 24.4564 66.8704
512 2 22.6783 24.5246 -4.9948
515 2 24.4324 26.2726 -5.1094
510 2 22.4638 26.2131 66.6382
516 2 26.3031 24.6574 -5.00666
576 2 26.0163 28.0655 -5.1297
519 2 27.8941 26.3997 -5.02142
520 2 29.7914 24.5412 -4.91297
580 2 29.8411 27.9501 -5.04666
523 2 31.575 26.2615 -4.80154
584 1 33.5256 28.1262 -4.96498
527 2 35.5216 26.5321 -4.84247
531 1 39.0965 26.3912 -4.94122
588 2 37.1888 28.1649 -5.10221
532 2 40.9775 24.4476 -4.91154
535 2 42.6116 26.5784 -4.98334
536 1 44.3947 24.546 -5.02262
537 2 46.5464 24.3198 67.1352
539 2 46.3909 26.1865 -4.8645
596 2 44.638 28.0762 -5.13951
533 1 42.7445 24.5214 66.748
534 2 44.5548 26.4847 66.9203
600 1 48.3309 28.0912 -5.11164
538 1 48.188 26.163 66.8645
543 2 -5.01718 29.9542 -5.18896
544 2 -3.20781 27.9644 -5.07585
547 2 -1.27426 29.8433 -5.19828
548 2 0.650549 28.0554 -4.95187
1446 2 0.508737 29.852 -3.24204
551 2 2.25533 30.0104 -5.11581
552 2 4.19429 28.1329 -5.21656
555 2 6.03805 30.0123 -5.12296
556 2 7.8001 27.9788 -5.22265
559 2 9.50319 29.8274 -5.2979
558 2 11.2986 29.846 66.7298
563 2 12.9554 29.8666 -5.18709
620 2 11.3729 31.7461 -5.07854
567 1 16.742 29.7368 -5.00456
624 2 14.8856 31.8167 -5.10108
625 2 16.85 31.8382 66.9881
568 1 18.6218 27.9157 -4.9607
569 2 20.6301 27.9939 -6.84355
628 2 18.6887 31.596 -5.08432
571 2 20.5301 29.6697 -4.92449
1470 2 22.5193 29.8746 -3.1894
570 2 22.3162 29.7169 -6.87454
572 2 22.5322 28.0567 -5.16616
575 2 24.1884 29.8791 -5.0779
574 2 26.1506 29.708 66.8868
636 2 25.8795 31.8095 -4.98913
637 2 27.8308 31.7541 66.8584
578 1 29.7823 30.0191 66.9716
579 1 27.8811 30.0036 -4.99736
640 2 29.766 31.7594 -4.69016
583 1 31.7046 30.1147 -5.06563
644 2 33.8181 31.9401 -5.21145
641 2 31.8876 31.9178 66.8525
587 2 35.3441 29.9529 -5.06904
591 2 39.049 29.9287 -5.12382
586 2 37.2636 29.9894 66.7885
590 2 40.945 29.9108 66.7452
592 2 40.9874 28.2675 -5.07253
649 2 39.2449 31.8401 66.9608
593 2 42.8067 28.1675 66.7338
594 2 44.4518 29.851 -6.99671
595 2 42.8669 30.0787 -5.17944
597 2 46.3261 28.1775 -7.03751
599 1 46.4408 29.9714 -5.17082
657 2 46.1844 31.7684 -7.01369
660 2 48.3503 31.9526 -5.21763
598 1 48.2763 30.0129 -6.97208
602 2 -3.19611 33.5905 67.001
604 2 -3.09458 31.7884 -5.27398
601 2 -5.00224 31.8338 -6.92714
608 2 0.394304 31.7216 -4.97529
607 2 -1.25803 33.4773 -5.24422
611 2 2.30039 33.6472 -5.06591
612 1 4.19069 31.8331 -5.21769
615 2 5.94665 33.7858 -5.10304
610 2 4.13117 33.632 -7.10186
616 2 7.63403 31.8365 -5.05651
619 2 9.46906 33.6365 -5.16311
623 2 13.2728 33.6419 -5.04481
627 2 16.8564 33.5219 -4.98775
1522 2 14.9549 33.6313 -3.25442
1585 2 16.934 35.4716 -3.25146
685 2 16.9853 35.4671 -6.82864
631 2 20.3308 33.3834 -5.17334
688 2 18.6415 35.3373 -5.07717
626 2 18.6151 33.5126 -6.99617
689 2 20.5198 35.1811 66.9017
629 2 20.6305 31.6564 66.9158
632 2 22.2972 31.5918 -5.12976
633 2 24.2645 31.4437 66.9028
635 2 24.1684 33.516 -5.05754
692 2 22.2313 35.2466 -5.04286
630 2 22.2983 33.3976 -6.83328
693 2 23.9604 35.0743 66.9887
634 2 26.051 33.3199 -6.7957
696 2 25.9261 35.1827 -5.13353
639 2 27.8112 33.4819 -4.76508
697 1 27.8164 35.3152 67.0191
700 1 29.5974 35.3765 -4.85734
701 2 31.7375 35.4754 67.0829
638 1 29.7885 33.4691 67.0141
642 2 33.5325 33.6245 66.9163
643 2 31.8357 33.4553 -4.91479
645 2 35.4448 31.8139 66.8445
648 2 37.4307 31.844 -5.04883
647 2 35.5906 33.7254 -5.18202
651 2 39.0564 33.57 -5.06701
646 2 37.3169 33.5883 66.9592
652 2 40.9455 31.6144 -5.20261
650 2 41.0024 33.7501 -7.00262
653 2 42.6633 31.6676 -6.91583
656 2 44.5015 31.8254 -5.16454
654 2 44.5868 33.7129 -6.9598
655 2 42.7337 33.4144 -5.05421
603 2 -5.11172 33.628 -5.29565
658 2 48.2775 33.6296 -7.07805
659 2 46.4473 33.6982 -5.11959
717 2 46.6066 35.577 -6.90146
664 2 -3.09353 35.4006 -5.14462
665 2 -1.30992 35.3354 -6.87243
662 2 -3.219 37.2368 66.8997
667 2 -1.27967 37.1724 -5.33302
668 2 0.468261 35.3949 -4.99657
669 2 2.17843 35.442 -6.88112
1569 2 2.29696 35.562 -3.38475
671 2 2.31888 37.4835 -5.12802
672 2 3.94031 35.4613 -5.1854
675 2 6.00226 37.3686 -5.13549
676 2 7.7294 35.6394 -5.05832
674 2 7.56895 37.2948 -6.9449
1574 2 7.82584 37.4474 -3.28886
680 2 11.3617 35.5103 -5.09421
679 2 9.65576 37.5515 -5.26046
683 2 13.2517 37.1673 -5.09781
684 2 15.0734 35.5263 -5.13174
687 2 17.0147 37.1869 -5.07466
682 2 15.1556 37.1592 -6.88218
691 1 20.6587 37.3911 -5.2086
748 2 18.778 39.2689 -5.21804
686 2 18.7465 37.2207 66.913
749 2 20.6461 39.2923 -6.99914
752 2 22.2684 39.3706 -4.9362
695 1 23.9002 37.097 -5.27999
690 2 22.2925 37.1844 -7.21974
694 1 25.9799 37.0857 -6.90708
699 1 27.7548 37.1554 -4.96306
698 2 29.8057 37.2944 66.9313
703 2 31.5883 37.3685 -5.16701
757 2 27.8259 39.0961 66.9347
704 2 33.6742 35.5416 -5.08546
702 2 33.5661 37.2414 66.9115
707 2 35.4336 37.4344 -5.14787
1602 2 33.6764 37.2282 -3.2162
705 2 35.4703 35.4438 66.9348
708 2 37.3431 35.5917 -5.09242
709 2 39.1629 35.336 67.0167
712 2 40.9704 35.4167 -4.98321
711 2 39.1281 37.3611 -5.05383
710 2 40.813 37.2384 -6.85686
713 2 42.7562 35.4616 -6.8075
716 2 44.5906 35.1805 -5.00699
715 2 42.7231 37.1332 -4.9776
714 1 44.6764 37.2251 -6.81977
661 2 50.2309 35.499 -6.92572
720 2 48.424 35.3363 -5.15289
663 2 -5.05308 37.4062 -5.25687
718 2 48.4088 37.2688 -7.01181
719 2 46.609 37.1174 -4.95209
724 2 -3.48934 39.1805 -5.0955
723 2 -5.12335 40.9993 -5.13939
728 2 0.468887 39.0341 -5.13359
1629 2 2.2695 39.1841 -3.19329
727 2 -1.35953 40.8904 -5.03053
731 2 2.15062 40.914 -5.10422
788 2 0.187126 42.8344 -4.9071
732 2 4.10569 39.1638 -5.04194
735 2 5.92465 41.0298 -5.20469
736 2 7.77207 39.229 -5.15551
734 2 7.86429 41.1167 -6.86629
1634 2 7.5982 40.872 -3.30799
740 2 11.2856 39.2555 -5.15735
739 2 9.58969 41.0789 -4.94629
743 2 13.168 40.956 -5.05063
737 2 9.49615 39.0592 -7.02757
738 2 11.4362 40.994 -6.83205
741 2 13.3483 39.0027 -6.77979
744 2 15.1935 39.1031 -4.97122
745 2 16.935 39.0853 -6.903
747 2 16.7855 41.118 -5.11738
742 2 15.1535 41.0478 66.8342
805 2 16.8537 42.913 -6.87089
751 2 20.428 41.0687 -4.97792
808 2 18.5984 42.7295 -4.94303
746 2 18.5962 41.0226 -6.9286
755 2 24.1042 41.0042 -5.05777
753 2 24.1422 38.9691 66.9624
809 2 20.6362 42.9648 -6.8722
750 2 22.4617 41.0166 -6.80328
756 2 25.966 39.0799 -4.99102
754 1 25.9904 40.9396 67.0647
760 2 29.739 38.8709 -4.93102
759 2 28.1849 40.9076 -4.89434
763 2 31.6494 40.8374 -5.01624
758 2 29.8888 40.8284 67.0599
761 2 31.7312 39.2307 66.9643
764 2 33.5598 39.1308 -5.14158
767 2 35.3102 40.8457 -5.02012
825 2 35.3002 42.8626 67.1097
765 2 35.3564 39.1422 -6.80039
762 2 33.3764 40.8602 67.0028
768 2 37.3912 39.1495 -5.08085
828 1 37.1767 42.7689 -4.87388
772 2 40.9513 39.0749 -4.89381
771 2 39.2988 40.7887 -4.7692
829 1 39.1241 42.6952 -6.7713
832 2 41.1677 42.8985 -4.86282
769 2 39.0134 39.4376 66.8952
770 2 41.0635 40.9891 67.1868
776 2 44.6905 39.053 -4.8696
775 2 42.9071 40.7511 -4.88992
773 2 42.7357 39.1517 -6.69134
774 2 44.5358 40.9811 66.9505
780 1 48.4543 39.0988 -5.22538
779 2 46.5935 40.955 -5.03724
777 2 46.4639 39.0838 66.9995
784 2 -3.14736 42.745 -4.96637
787 2 -1.43905 44.7265 -4.85604
786 2 0.170422 44.5831 67.103
791 1 2.05343 44.759 -4.83495
792 2 3.87628 42.896 -5.15088
795 2 5.9672 44.661 -4.83274
852 2 4.05342 46.5345 -4.8113
793 2 5.82633 42.8443 -6.82949
794 2 7.67965 44.7074 -6.99894
796 2 7.63066 42.8683 -5.02898
1693 2 5.98969 42.7323 -3.26466
799 2 9.32764 44.8553 -4.93527
800 2 11.5232 42.8672 -5.14643
803 2 13.2967 44.6855 -5.12681
804 2 14.833 42.8312 -4.96787
802 2 15.0614 44.7217 -6.92723
807 2 16.6403 44.7833 -4.96414
806 1 18.6311 44.7836 -6.7017
811 2 20.52 44.6688 -4.8956
810 2 22.3023 44.9958 67.0845
812 2 22.3675 43.1026 -5.05347
815 2 24.109 44.754 -4.79955
813 2 24.2287 42.8655 67.1607
816 1 26.1131 42.8467 -4.9732
814 2 26.0456 44.6035 66.9988
817 1 28.0751 42.7296 67.1039
818 2 29.8171 44.799 67.0556
819 2 28.2173 44.7754 -4.87941
820 2 29.9423 42.5859 -4.78367
880 2 29.977 46.5922 -4.69743
821 1 31.4537 42.9322 67.0674
823 2 31.5719 44.6222 -4.92506
824 2 33.5087 42.7353 -5.03846
822 2 33.4988 44.6105 66.9758
827 2 35.184 44.5757 -5.06382
826 2 37.1941 44.652 66.9664
885 2 35.3578 46.4838 66.8801
888 2 37.3358 46.3163 -4.96764
831 2 39.183 44.5925 -4.91378
889 2 39.3169 46.4802 -6.86084
892 2 40.8639 46.3056 -4.8215
830 2 40.9062 44.5067 67.1392
893 1 42.7709 46.4126 67.0207
835 2 43.0659 44.3814 -4.93028
836 2 44.7436 42.5885 -4.96446
839 2 46.3308 44.5966 -5.0296
896 2 44.7451 46.5221 -5.05647
833 2 42.9277 42.9609 66.8786
834 2 44.7422 44.6448 66.9001
783 2 -5.17962 44.831 -4.95118
838 2 48.4629 44.7067 66.9331
840 2 48.4981 43 -5.17283
900 2 48.3776 46.6019 -5.03119
781 1 50.369 42.7303 66.754
4 2 -3.41562 50.1952 -4.91861
841 2 -5.26494 46.5841 -6.88851
842 2 -3.32336 48.44 -6.79802
844 2 -3.38511 46.5226 -4.8824
845 2 -1.57383 46.4783 67.0926
847 2 -1.60884 48.5405 -4.90405
909 2 2.13395 50.1326 -2.96723
848 2 0.187532 46.6737 -4.79277
851 2 2.16309 48.5334 -5.00946
846 2 0.166222 48.4262 67.2339
855 2 5.89409 48.3405 -4.93073
16 2 7.71814 50.0101 -5.13522
856 2 7.64181 46.6173 -5.01666
859 2 9.58652 48.4879 -4.96075
20 2 11.3221 50.3337 -4.97969
860 2 11.2851 46.5412 -5.17031
24 2 15.1518 50.2882 -5.02922
863 2 13.1797 48.4707 -5.20436
864 2 14.9495 46.6541 -5.15669
867 2 16.9216 48.4459 -4.99202
29 2 20.5703 50.1134 -6.86354
868 2 18.6849 46.722 -4.91379
871 2 20.6211 48.4961 -4.87027
869 1 20.4014 46.6701 67.0394
870 2 22.4227 48.5371 -6.48694
872 2 22.2304 46.4119 -4.81849
873 1 24.2241 46.7227 67.0459
874 2 26.4738 48.3326 67.1155
875 2 24.1519 48.4499 -4.80005
876 1 26.1476 46.4775 -4.8584
877 2 28.0245 46.4355 67.2232
878 1 30.0291 48.4366 67.0493
879 2 28.2897 48.3761 -4.82399
883 2 31.7907 48.4376 -4.76544
884 2 33.4588 46.4083 -4.99999
881 2 31.6187 46.3884 67.09
882 1 33.5428 48.354 66.989
48 2 37.1806 49.9942 -4.77073
887 2 35.3574 48.2435 -4.92275
886 1 37.2167 48.2915 -6.86397
52 2 40.9914 -5.34284 -5.13004
891 2 39.2979 48.2596 -4.9999
890 2 40.8744 48.3065 -6.90634
53 2 42.7055 49.909 -6.70852
895 2 42.7278 48.0626 -4.88449
56 1 44.5984 50.0299 -5.01806
894 2 44.7481 48.2021 -7.02991
57 2 46.5137 50.1994 -6.93807
897 2 46.4929 46.47 -6.99242
899 2 46.566 48.4363 -4.97145
1 1 -5.28821 50.173 -6.84184
843 2 -5.2596 48.3568 -4.97008
60 2 48.3461 50.2666 -4.95582
898 2 48.2656 48.2357 -6.95701
902 1 -3.40922 -3.15387 -3.17293
905 2 -1.60077 50.1021 -3.15666
904 2 -3.23289 50.0572 -1.24995
907 2 -1.56921 -3.41982 -1.25372
906 2 0.387009 -3.31912 -3.05244
908 2 0.30394 50.1868 -1.27587
911 2 2.14195 -3.43191 -1.16695
915 1 5.89854 -3.4433 -1.18112
912 2 3.94256 50.0386 -1.15725
919 2 9.34267 -3.24591 -1.25322
918 2 11.3562 -3.21763 -3.11033
920 2 11.3045 50.2811 -1.30206
980 2 11.3108 -1.5335 -1.40864
923 2 13.2148 -3.33109 -1.21281
922 2 15.1541 -3.31946 -3.0861
981 2 13.5106 -1.54651 -3.00889
984 2 15.2558 -1.21852 -1.22786
985 2 16.9645 -1.59912 -3.19876
926 2 18.7407 -3.29358 -3.28037
989 1 20.5956 -1.50564 -3.2811
929 2 20.6921 50.5097 -3.16408
927 2 16.9318 -3.4498 -1.28442
931 2 20.5349 -3.2946 -1.28636
988 2 18.6317 -1.49675 -1.38117
928 2 18.8075 50.2861 -1.47719
930 2 22.6289 -3.17233 -3.31971
992 2 22.4501 -1.47253 -1.37426
932 2 22.5818 50.3526 -1.32818
934 2 26.0722 -3.06559 -3.24413
933 2 24.3098 50.1094 -3.01015
935 1 24.447 -3.16562 -1.2986
996 2 26.472 -1.59369 -1.16798
936 1 26.3249 50.207 -1.34821
938 2 29.9516 -3.35053 -3.13109
997 2 28.1042 -1.60383 -3.13112
937 2 28.1662 -5.03523 -3.14483
939 2 28.2171 -3.32393 -1.2364
940 2 30.0461 -5.12974 -1.25896
1000 2 29.9686 -1.60378 -1.20311
941 2 31.7568 50.1524 -2.97367
942 2 33.9708 -3.53527 -3.20864
945 2 35.4219 49.9365 -3.06763
943 2 31.8813 -3.50095 -1.16658
947 2 35.5371 -3.53692 -1.26846
944 2 33.6488 50.075 -1.29831
946 2 37.1865 -3.38685 -2.94169
951 2 39.0344 -3.42992 -1.30752
950 2 40.7245 -3.4541 -3.20593
953 2 42.6144 50.1378 -3.25156
1013 2 42.6025 -1.64875 -3.28095
952 2 40.9447 50.0101 -1.44921
955 2 42.5656 -3.42176 -1.48889
1012 2 41.0381 -1.51191 -1.392
954 2 44.5218 -3.50301 -3.34782
957 2 46.3845 50.1127 -3.05222
956 2 44.3251 50.1117 -1.30784
901 2 -5.28968 50.1142 -3.21692
958 2 48.1723 -3.36787 -3.36267
903 1 -5.28043 -3.51787 -1.37236
959 2 46.2276 -3.50149 -1.36374
960 2 48.2196 50.1218 -1.43313
965 2 -1.55506 -1.39403 -3.11307
962 2 -3.4378 0.18525 -2.92275
1025 2 -1.68007 2.02119 -2.93883
964 2 -3.43854 -1.57103 -1.16171
967 2 -1.68837 0.362321 -1.02966
1024 2 -3.58553 2.07028 -1.27379
969 2 2.05391 -1.33322 -3.14677
966 2 0.166039 0.37335 -2.94206
968 1 0.308732 -1.3957 -1.19773
970 2 3.95797 0.356521 -3.17365
1033 1 5.8513 2.08118 -3.22918
972 1 3.8406 -1.38149 -1.22052
971 2 2.15102 0.500731 -1.11185
975 2 5.7898 0.257861 -1.20019
977 2 9.47044 -1.51886 -3.19934
976 2 7.73338 -1.42503 -1.24156
1036 2 7.60852 2.24066 -1.30014
979 2 9.63352 0.384338 -1.56934
978 2 11.4907 0.152402 -3.12805
1037 2 9.31183 1.82564 -3.35875
1040 1 11.4065 2.31451 -1.52995
983 2 13.3478 0.456253 -1.47225
1041 2 13.3736 2.11742 -3.19573
982 2 15.149 0.309207 -3.12633
1045 2 16.8654 2.08315 -3.04524
986 2 18.6445 0.300348 -3.02657
987 2 16.9501 0.398805 -1.11762
991 1 20.671 0.385813 -1.37484
993 2 24.4422 -1.30047 -3.09617
990 1 22.4876 0.283977 -3.27795
994 2 26.4836 0.156983 -3.12166
995 2 24.5897 0.188628 -1.18437
1056 2 26.442 2.0928 -1.2153
998 1 29.9705 0.241406 -3.15577
999 2 28.1982 0.103498 -1.0826
1001 2 31.9439 -1.5499 -3.07099
1002 2 33.7653 0.433934 -3.18115
1004 1 33.8105 -1.74104 -1.3173
1003 1 31.8233 0.269932 -1.22795
1005 2 35.7186 -1.44732 -3.03438
1009 1 39.0333 -1.47716 -3.10686
1006 2 37.3343 0.502826 -3.14338
1008 2 37.2943 -1.34142 -1.13681
1007 2 35.5148 0.444964 -1.29793
1011 2 38.9009 0.41647 -1.16858
1010 2 40.7933 0.497034 -3.05517
1015 1 42.7676 0.434691 -1.27314
1017 2 46.2251 -1.74847 -3.15831
1014 2 44.5657 0.0973209 -3.18817
1016 2 44.2538 -1.68881 -1.46218
1019 2 46.0147 0.289945 -1.29446
961 2 -5.49103 -1.39105 -3.10855
1021 2 -5.40049 1.8787 -3.15365
1018 2 47.9707 0.080703 -3.10517
1020 2 48.1197 -1.5314 -1.39742
963 2 -5.31728 0.0364375 -1.20609
1022 1 -3.42414 3.86402 -3.08545
1027 2 -1.50227 4.08847 -1.24972
1029 2 2.1069 2.18645 -3.18682
1026 2 0.298073 4.18811 -3.11163
1089 2 1.93864 5.77538 -3.44503
1028 2 0.168603 2.20901 -1.33713
1031 2 1.97277 4.14798 -1.37226
1088 2 0.238523 6.04001 -1.22974
1030 2 4.03275 3.92122 -3.40088
1032 2 3.82187 2.17117 -1.36784
1092 1 3.81008 5.86023 -1.54032
1034 2 7.71073 3.96929 -3.37802
1035 2 5.62305 3.89479 -1.45769
1096 1 7.61344 5.99872 -1.43782
1039 2 9.47345 4.06824 -1.57506
1038 2 11.5537 4.11166 -3.39277
1097 1 9.53796 5.82514 -3.44795
1101 2 13.2686 5.88434 -3.18499
1100 2 11.1635 5.91308 -1.45002
1042 2 15.0631 4.01212 -3.12509
1105 2 17.1155 6.05787 -3.29492
1044 2 15.2692 2.24148 -1.23892
1043 2 13.1068 4.27432 -1.48353
1104 2 15.183 6.03816 -1.35934
1046 2 18.9313 4.10534 -3.12412
1048 2 18.8655 2.28878 -1.25944
1047 2 17.0771 4.07786 -1.52251
1049 2 20.7886 2.1357 -3.14211
1050 2 22.5155 3.85231 -2.98482
1109 2 20.9108 5.88023 -3.25844
1052 2 22.7362 2.20476 -1.21039
1051 2 20.7041 3.95096 -1.19995
1055 2 24.5181 3.99612 -1.20296
1053 2 24.5141 2.14441 -3.08078
1057 2 28.1658 2.37236 -3.0677
1054 2 26.2711 4.023 -3.1937
1117 2 28.1405 5.60278 -3.16889
1059 2 28.0732 3.93074 -1.0916
1058 2 29.9824 3.84505 -3.11325
1060 2 30.084 2.13465 -1.14169
1063 2 31.7299 3.95089 -1.345
1061 2 31.8602 2.08992 -3.15857
1065 2 35.5436 2.36076 -3.1739
1062 2 33.5452 3.99974 -3.21269
1064 2 33.6624 2.20135 -1.37993
1067 2 35.3588 4.21179 -1.24201
1069 2 39.2086 2.21851 -3.2632
1066 2 37.243 4.24932 -3.21792
1129 2 39.0974 5.87624 -3.19593
1068 2 37.1935 2.20491 -1.2538
1071 1 38.9898 4.14377 -1.28925
1128 2 37.1034 6.09273 -1.46167
1073 2 42.8081 2.30464 -3.06485
1070 2 40.9748 4.00867 -3.1117
1072 2 40.849 2.22666 -1.35741
1075 2 42.7117 4.04547 -1.12277
1074 2 44.6973 4.09827 -3.06926
1077 2 46.27 2.04704 -3.05091
1133 2 42.7131 5.929 -2.95291
1076 2 44.4792 2.27388 -1.31371
1079 2 46.3512 3.91899 -1.2948
1078 2 48.1057 3.86111 -3.08968
1081 1 -5.36233 5.72981 -3.02507
1080 1 48.1742 1.97227 -1.26036
1023 2 -5.3256 3.75019 -1.24598
1140 2 48.2684 5.74268 -1.21025
1082 2 -3.44825 7.63696 -3.00556
1085 2 -1.64833 5.80326 -2.91029
1141 2 50.1886 9.35875 -2.94495
1084 2 -3.48199 5.88056 -1.1972
1087 2 -1.60815 7.72582 -1.40071
1144 2 -3.26966 9.53664 -1.31696
1086 2 0.173418 7.59898 -3.15287
1145 2 -1.57583 9.45041 -3.38324
1148 2 0.247385 9.6053 -1.60715
1090 2 3.92833 7.59727 -3.47923
1149 1 2.11636 9.40251 -3.37993
1153 2 5.79788 9.66772 -3.40441
1091 2 2.06676 7.71487 -1.46054
1095 2 5.68385 7.74828 -1.72394
1152 2 3.97178 9.62566 -1.55332
1094 2 7.61798 7.59731 -3.46047
1157 2 9.5673 9.34107 -3.49656
1099 2 9.56499 7.7729 -1.69516
1156 1 7.65558 9.67688 -1.67601
1098 2 11.4827 7.63464 -3.54602
1103 2 13.2881 7.7164 -1.44224
1160 1 11.4078 9.45726 -1.53082
1102 2 15.2139 7.79146 -3.45362
1161 1 13.2243 9.50402 -3.4853
1107 1 16.9275 7.8182 -1.53155
1164 2 15.1185 9.72312 -1.58589
1106 2 19.0218 7.60648 -3.4581
1108 1 18.9094 5.99772 -1.2472
1168 1 18.9554 9.63588 -1.49574
1110 2 22.8706 7.45667 -3.04232
1111 2 20.8408 7.75988 -1.20125
1112 2 22.4476 5.67128 -1.22052
1113 2 24.5672 5.87737 -3.03659
1114 1 26.3119 7.72683 -3.09544
1115 2 24.2992 7.76008 -1.23307
1116 2 26.3186 5.93411 -1.11401