ITEM: TIMESTEP
1000
ITEM: NUMBER OF ATOMS
18000
ITEM: BOX BOUNDS pp pp pp
-5.1029706422436405e+00 5.0102970642243676e+01
-5.1029706422436405e+00 5.0102970642243676e+01
-6.8039608563249772e+00 6.6803960856324750e+01
ITEM: ATOMS id type x y z
2 2 -3.28689 -3.3057 -6.68008
3 2 49.9568 -3.06249 -4.97904
4 2 -3.221 50.0812 -4.86025
5 2 -1.42815 50.1497 -6.69384
7 2 -1.37636 -3.12912 -4.97217
64 2 -3.30948 -1.47151 -5.03297
901 2 50.0695 50.0845 -3.12239
902 1 -3.41124 -3.057 -3.11114
905 2 -1.44197 -4.91224 -3.1566
965 2 -1.49183 -1.39856 -2.98866
6 2 0.251619 -3.18544 -6.76445
8 2 0.39958 50.2529 -4.98877
11 2 2.1731 -3.0935 -5.1683
68 2 0.426992 -1.33213 -4.88272
906 2 0.483908 -3.20578 -3.1747
969 2 2.21194 -1.34809 -3.23134
72 2 4.15431 -1.10045 -5.1702
910 1 4.03145 -3.21749 -3.38162
14 2 7.94877 -3.16072 66.6803
15 2 6.00062 -3.24549 -5.23328
76 2 7.85942 -1.49058 -5.13244
914 2 7.65743 -3.30568 -3.28775
973 2 5.96309 -1.24666 -3.29116
18 2 11.5472 -3.26819 66.6379
19 1 9.70159 -3.31285 -5.03916
20 2 11.5603 50.0067 -5.06219
77 2 9.83649 -1.39298 66.6565
80 2 11.7059 -1.5747 -4.86706
917 2 9.54278 -5.32814 -3.16446
918 2 11.4963 -3.43047 -3.17017
977 2 9.46425 -1.38858 -3.21143
23 2 13.3677 -3.37737 -5.0249
24 2 15.2793 49.9327 -4.99401
27 2 16.9395 -3.33957 -5.13939
81 2 13.3385 -1.45818 66.7842
84 2 15.2107 -1.365 -5.01417
921 2 13.3885 49.963 -3.11148
922 2 15.1599 -3.35637 -3.29265
981 2 13.4169 -1.52233 -3.17781
985 2 17.0697 -1.54036 -3.21533
26 2 18.7326 -3.35226 -6.94515
31 2 20.5382 -3.29833 -5.05652
88 2 18.8199 -1.45124 -5.12449
89 2 20.5659 -1.45512 -6.86207
926 2 18.6719 -3.30192 -3.21636
989 1 20.6087 -1.5904 -3.11407
930 2 22.6683 -3.24006 -3.00379
30 1 22.5148 -3.31021 66.8486
34 2 26.326 -3.1261 -6.87966
35 2 24.3778 -3.07155 -4.90284
92 2 22.4839 -1.41867 -4.85692
93 2 24.5778 -1.46838 -6.79009
96 2 26.2045 -1.40094 -4.74591
934 2 26.2262 -3.1853 -2.97657
993 2 24.3396 -1.40475 -3.00778
37 2 28.0848 50.0061 -6.84343
39 2 28.0973 -3.13815 -4.79211
40 2 29.9327 -5.09598 -4.77907
100 2 29.9978 -1.50972 -5.05761
938 2 29.9464 -3.24663 -3.08674
997 2 28.1656 -1.43545 -3.03265
43 2 31.7607 -3.29059 -4.76313
941 2 31.7888 -5.00576 -2.86723
1001 2 31.781 -1.41084 -2.97773
42 2 33.7024 -3.43008 -6.59511
44 2 33.6507 -5.0822 -4.67203
45 2 35.5529 -5.11379 -6.77362
47 2 35.3938 -3.34268 -4.7986
101 2 31.8231 -1.61396 -6.76525
104 1 33.6287 -1.44114 -4.76154
105 2 35.3412 -1.45956 -6.8162
942 2 33.5324 -3.3005 -2.81642
1005 2 35.4964 -1.40512 -2.81856
46 2 37.136 -3.25786 -6.58285
48 2 37.2581 50.1033 -4.58165
49 2 38.9176 50.2305 -6.54475
51 2 38.9568 -3.21085 -4.76201
108 2 37.0132 -1.43764 -4.78017
109 2 38.8405 -1.41685 -6.68457
949 2 39.1024 49.9909 -3.09537
1009 1 38.9153 -1.23142 -2.99772
52 2 40.7903 -5.13498 -4.80248
55 2 42.4964 -3.20541 -4.84481
56 1 44.3375 -5.12483 -4.82193
112 2 40.6561 -1.32382 -4.97321
116 2 44.572 -1.59335 -4.77819
950 2 40.8038 -3.28506 -3.07289
953 2 42.6047 -5.01311 -2.94797
954 2 44.508 -3.36591 -2.87472
1013 2 42.5636 -1.55872 -3.09763
961 2 49.6191 -1.14837 -3.26957
58 2 48.0661 -3.46815 -6.63514
59 2 46.2822 -3.34351 -4.82822
120 2 47.9849 -1.39946 -5.12162
957 2 46.378 50.2429 -2.9039
958 2 48.0966 -3.26794 -3.11011
1017 2 46.2744 -1.35814 -3.0945
67 2 -1.397 0.262208 -4.74522
124 1 -3.25045 2.0588 -4.94382
125 2 -1.42007 2.2296 -6.77929
962 2 -3.5312 0.110406 -3.10287
1025 2 -1.48625 2.17427 -3.01113
122 2 -3.33423 3.9972 -6.70295
127 2 -1.43355 4.2694 -4.97497
1022 1 -3.26088 4.05768 -3.16446
71 2 2.39366 0.554251 -5.01469
128 1 0.335305 2.27116 -4.84313
129 2 2.16843 2.28889 66.6812
966 2 0.46411 0.514496 -3.07927
1029 2 2.11753 2.44662 -2.95135
132 2 4.10285 2.26279 -5.19438
970 2 3.96029 0.592595 -3.21081
126 2 0.491183 4.07634 66.7764
131 2 2.3087 4.18262 -4.86619
75 2 6.07668 0.537603 -5.27687
136 2 7.96339 2.30846 -5.25138
974 2 7.7884 0.422129 -3.36554
1033 1 5.8225 2.19003 -3.29141
134 2 7.99381 4.02217 66.6117
135 2 5.92495 4.09945 -5.14146
1030 2 4.07546 4.01708 -3.21483
1034 2 7.77785 3.85919 -3.17958
78 2 11.6625 0.348283 -6.90226
79 2 9.7898 0.31931 -5.15862
137 2 9.86252 2.18744 66.6625
140 2 11.571 2.12527 -4.95969
978 2 11.446 0.339141 -3.22657
1037 2 9.68577 2.12476 -3.22385
1041 2 13.3523 2.03606 -3.13128
139 2 9.69683 3.98542 -5.00349
143 2 13.4852 4.00644 -4.92172
83 2 13.4323 0.408213 -4.96993
87 2 16.9734 0.362198 -5.03653
144 2 15.2579 2.19924 -4.87023
982 2 15.2358 0.295751 -3.08999
1045 2 17.011 2.13724 -2.99831
147 1 16.9371 4.09806 -4.91901
91 2 20.6457 0.244341 -4.9915
148 1 18.9024 2.1466 -4.98957
986 2 18.6755 0.394315 -3.04406
1049 2 20.6741 2.28658 -3.01441
152 2 22.4447 2.05881 -4.95336
990 1 22.5221 0.420162 -2.94141
1050 2 22.4083 4.07096 -2.92249
90 2 22.5289 0.249278 -6.83362
94 2 26.1195 0.360945 66.8583
95 2 24.2713 0.298055 -4.94088
156 1 26.2068 2.11022 -4.83655
994 2 26.3027 0.298326 -2.95018
1053 2 24.342 2.27064 -2.83093
155 1 24.1844 3.92754 -4.83606
98 2 30.0122 0.328771 -6.89517
99 2 28.1297 0.350102 -5.08844
157 2 28.0831 2.02437 -6.81001
160 2 29.8538 2.23372 -4.9282
998 1 29.9086 0.404279 -3.1878
1057 2 27.9858 2.33301 -3.05352
103 2 31.7426 0.420059 -5.08166
107 2 35.4902 0.501242 -4.82839
161 2 31.5651 2.29898 -6.8308
164 2 33.4559 2.3301 -4.89168
1002 2 33.7378 0.488741 -3.14501
1061 2 31.7461 2.39348 -2.95994
1065 2 35.2171 2.50845 -3.07787
167 2 35.246 4.22566 -5.077
106 2 37.026 0.341545 -6.6912
111 2 38.8334 0.577682 -5.08105
168 2 37.0671 2.30366 -4.85383
169 2 38.9281 2.30133 -6.69084
1006 2 37.0817 0.650545 -2.95097
1069 2 38.9148 2.37728 -3.07738
172 2 40.6352 2.35851 -5.02029
171 2 38.9531 4.17815 -4.75106
1066 2 37.004 4.29084 -3.02756
170 2 40.7603 4.17758 -6.75301
115 1 42.6976 0.436252 -4.86774
176 2 44.677 2.29881 -4.92675
1010 2 40.7764 0.558928 -3.16271
1014 2 44.5963 0.523602 -3.10392
1073 2 42.6917 2.32006 -3.09977
175 1 42.6969 4.0284 -4.8729
1070 2 40.8247 4.0198 -2.92745
1074 2 44.518 4.15273 -3.07084
63 2 49.7394 0.465063 -4.9888
121 2 50.0972 2.20426 -6.89023
1021 2 50.0397 2.11344 -3.09729
119 2 46.2762 0.458445 -4.98395
180 2 48.1533 2.34364 -4.9034
1018 2 47.801 0.566785 -3.20666
1077 2 46.2644 2.37197 -3.01414
123 2 -5.28892 3.94234 -5.01442
179 2 46.2814 4.09932 -5.07278
1078 2 48.0934 4.15814 -3.08974
181 2 50.1896 5.96304 -6.89205
182 2 -3.27379 7.77713 -6.7802
184 2 -3.25824 5.93157 -5.01685
185 2 -1.44214 5.92856 66.915
187 2 -1.53349 7.79372 -4.85138
1082 2 -3.38791 7.87074 -3.15885
1085 2 -1.45292 6.07001 -3.00322
188 2 0.308915 6.01739 -4.89513
191 2 2.28267 7.5324 -4.95043
1026 2 0.160425 4.17106 -2.88621
1086 2 0.388457 7.73415 -3.00713
1089 2 2.18575 5.88197 -3.07753
190 2 4.2293 7.45615 66.6969
192 2 4.13926 5.79996 -4.94865
193 2 5.92962 5.63771 66.6411
194 2 7.8812 7.69874 66.7195
195 2 6.06349 7.58857 -5.16584
196 2 7.87176 5.71413 -5.08817
1090 2 4.23834 7.64325 -3.20771
1093 2 5.95216 5.72063 -3.30224
1094 2 7.58542 7.57883 -3.19166
197 2 9.86052 5.87476 66.838
199 2 9.66493 7.68095 -5.03391
200 2 11.6137 5.82685 -5.03471
1038 2 11.4689 4.02843 -3.21914
1097 1 9.62271 5.90466 -3.17673
1098 2 11.5245 7.72022 -3.16396
203 2 13.3212 7.83214 -5.05284
204 1 15.0702 6.07355 -4.9604
207 2 17.1588 7.66186 -5.03518
1042 2 15.0944 4.07804 -3.08613
1101 2 13.2643 5.83323 -3.01801
1102 2 15.115 7.72808 -3.05186
1105 2 16.887 5.92755 -3.07333
151 2 20.7696 3.96203 -4.95874
206 2 18.9429 7.781 -6.63892
208 2 18.8828 5.85105 -4.86086
211 2 20.8557 7.62575 -4.93603
1046 2 18.9047 4.12313 -3.07274
1106 2 18.9536 7.77881 -3.20064
1109 2 20.7349 5.75085 -3.11948
212 2 22.6328 5.82828 -5.00827
214 2 26.2392 7.72991 66.7775
215 2 24.361 7.72634 -5.04534
216 2 26.1439 5.85082 -4.98536
1054 2 26.0055 4.15229 -2.90493
1110 2 22.7036 7.71387 -3.22858
1113 2 24.3162 5.9742 -2.95479
1114 1 26.1766 7.78388 -3.18307
158 2 29.7659 4.1764 66.8645
159 2 28.1159 4.06034 -4.94082
217 2 27.9675 5.9542 -6.75706
218 2 29.7716 7.84187 66.6813
219 2 27.9993 7.75636 -5.02496
220 2 29.7966 5.92115 -4.99402
1058 2 29.8791 4.08473 -3.09172
1117 2 27.9711 5.84914 -3.15292
1118 2 29.7979 7.67288 -3.11163
223 2 31.4816 7.74878 -5.018
162 2 33.3125 4.12213 66.8258
163 2 31.6142 4.19938 -4.94618
221 2 31.416 5.91871 66.7452
222 2 33.261 7.63536 66.6611
224 2 33.268 6.10922 -4.97357
225 2 35.1972 5.98849 66.831
227 2 35.233 7.81007 -4.95295
1062 2 33.4149 4.2982 -3.21386
1121 2 31.6748 5.99027 -3.08176
1122 2 33.3928 7.80842 -3.02442
1125 2 35.1647 6.02082 -3.17903
166 2 37.181 4.13422 66.8777
226 2 37.1407 7.64995 -6.90947
228 2 37.0425 5.98202 -4.94177
229 2 39.0366 5.8557 66.9977
231 2 39.0045 7.58559 -4.85469
1126 2 37.0983 7.74768 -3.13236
1129 2 39.03 5.91024 -3.05733
230 1 40.9592 7.66671 66.8039
232 2 40.9131 5.91675 -4.70064
1130 2 40.9474 7.78933 -3.07886
233 2 42.7084 5.86114 66.9036
234 2 44.5611 7.66761 66.765
235 2 42.7788 7.5931 -4.88917
236 2 44.6953 5.93772 -5.02522
1133 2 42.7753 5.8008 -3.06453
1134 2 44.5453 7.58896 -3.17101
183 2 -5.03508 7.78029 -5.0485
1081 1 -5.1032 5.90314 -3.04842
239 2 46.5488 7.81794 -5.20011
240 2 48.2601 5.97249 -5.01658
1137 2 46.5201 6.00735 -3.22154
1138 2 48.3663 7.73763 -3.3026
242 2 -3.13237 11.4518 -6.82961
244 2 -3.18066 9.68405 -5.05531
247 2 -1.25194 11.317 -5.08259
1142 2 -3.07331 11.3539 -3.24068
1145 2 -1.33129 9.59028 -3.02019
304 2 -3.23193 13.1523 -5.06745
305 2 -1.26329 13.2459 -6.84113
1201 2 50.2481 13.0527 -3.02426
1205 1 -1.4109 13.1092 -3.11638
248 2 0.447201 9.38837 -4.96699
251 2 2.24171 11.3857 -4.94662
1146 2 0.496602 11.307 -3.12885
1149 1 2.43743 9.48961 -3.18334
252 2 4.23804 9.28594 -5.21964
1150 2 4.2511 11.6141 -3.09995
308 2 0.534365 13.092 -5.00783
1209 2 2.32578 13.3189 -3.2156
312 2 4.04563 13.2214 -5.11434
253 2 6.1562 9.4965 66.6841
255 1 5.98887 11.4562 -5.04713
256 2 7.79985 9.43826 -4.97783
1153 2 5.7809 9.50791 -3.24645
1154 2 7.85282 11.5914 -3.1848
257 2 9.72822 9.5351 66.6519
259 2 9.57383 11.1739 -4.89514
260 2 11.4661 9.44862 -5.07656
1157 2 9.52267 9.4934 -3.11025
1158 2 11.4991 11.3255 -3.07854
263 2 13.4227 11.2277 -4.99326
1161 1 13.3077 9.55934 -3.04387
1221 2 13.3897 13.0865 -3.1356
264 2 15.1825 9.51041 -5.03909
265 2 17.0803 9.61761 66.925
267 2 16.9256 11.3544 -5.09461
1162 2 15.2234 11.4638 -3.26221
1165 2 17.03 9.53328 -3.38595
324 2 15.1362 13.0378 -5.0853
1225 2 16.8956 13.3139 -3.18155
266 2 18.9058 11.3567 66.8098
268 2 18.8936 9.6423 -5.00443
269 2 20.834 9.707 67.0598
271 2 20.6334 11.6571 -4.81964
1166 2 18.6643 11.538 -3.15685
1169 1 20.7695 9.62933 -3.28925
270 2 22.488 11.4729 66.94
272 2 22.7094 9.69026 -5.04676
273 2 24.3573 9.63346 66.67
274 2 26.2066 11.4347 66.6118
275 2 24.4259 11.4543 -4.9785
276 2 26.0728 9.7646 -5.11023
1170 2 22.6449 11.5558 -3.3101
1173 2 24.4858 9.68208 -3.08752
332 2 22.4982 13.4388 -4.99231
277 2 27.9628 9.58851 66.7602
278 2 29.813 11.338 66.6944
279 2 28.1055 11.3322 -5.01107
280 2 29.6819 9.46922 -5.044
1177 2 28.0885 9.55974 -3.23413
1178 2 29.7814 11.4696 -3.27355
281 2 31.5373 9.51199 66.6518
340 2 29.8837 13.2638 -5.08471
283 2 31.5294 11.3354 -5.12948
284 1 33.3726 9.53069 -5.04786
287 1 35.291 11.3631 -4.98485
1181 1 31.5078 9.52712 -3.10152
1182 2 33.3431 11.3979 -3.06524
1185 2 35.2643 9.5738 -3.07479
1241 2 31.5264 13.2027 -3.11287
288 2 37.1167 9.40271 -5.10339
291 2 38.8897 11.381 -4.93826
1186 2 37.0576 11.3832 -3.09921
1189 2 38.8556 9.56191 -3.36855
292 2 40.9299 9.48505 -4.95862
1190 2 40.8262 11.4311 -3.27434
293 2 42.8413 9.42844 66.8997
295 2 42.8521 11.258 -4.96974
296 2 44.7314 9.48829 -5.00978
1193 2 42.8309 9.57966 -3.21701
1194 2 44.6869 11.3031 -3.16646
356 2 44.7183 12.8449 -5.19232
1253 2 42.778 12.9384 -3.15886
243 2 -4.99773 11.437 -5.04364
1141 2 -5.03656 9.61438 -3.16214
297 2 46.4807 9.59186 66.5329
299 2 46.5906 11.2345 -5.04707
300 2 48.5314 9.56392 -5.02577
1197 2 46.6341 9.42694 -3.28459
1198 2 48.4243 11.3542 -3.24574
301 2 50.3781 13.2425 -7.00041
1257 2 46.3587 13.061 -3.17376
302 2 -3.18225 15.0539 66.7459
303 2 -5.10757 14.951 -5.05766
307 2 -1.37159 15.0182 -4.94991
361 2 -5.20406 16.7675 66.7893
364 2 -3.29198 16.8538 -4.99628
1202 2 -3.46468 15.0059 -3.21811
1261 2 -5.0467 16.9206 -3.12055
1265 2 -1.50543 16.6982 -3.16859
306 2 0.474666 14.9597 -6.84681
311 2 2.36251 14.987 -4.98643
368 1 0.427401 16.8877 -5.01735
369 2 2.41189 16.9199 66.7495
1206 2 0.406698 14.9745 -3.24796
1269 2 2.39956 16.8842 -3.27365
372 2 4.28026 16.6915 -5.06632
1210 2 4.3138 15.0631 -3.24531
315 2 6.06089 14.7635 -5.00693
316 2 8.15864 13.2044 -5.30607
373 2 5.82895 16.8928 66.6378
376 2 7.73198 16.6701 -5.26142
1213 2 6.17144 13.3496 -3.04723
1214 2 7.99298 15.088 -3.29243
1273 2 6.19379 16.7932 -3.39161
319 2 9.73438 15.0821 -5.18599
320 1 11.405 13.0053 -5.15
380 2 11.5475 16.8811 -5.27726
1217 2 9.68322 13.2546 -3.11599
1218 2 11.6228 14.8669 -3.19288
1277 2 9.92813 16.6866 -3.29574
323 1 13.3257 14.923 -5.15391
327 2 16.8202 14.986 -4.95999
384 2 14.9832 16.9039 -4.9285
385 2 16.8266 16.8548 66.9328
1222 2 14.9819 15.0562 -3.12365
1281 2 13.2222 16.8885 -3.23232
1285 2 16.7837 16.8357 -3.03679
328 2 18.6382 13.2869 -5.00887
331 2 20.4466 15.1347 -5.00131
388 2 18.5835 16.9794 -4.934
389 2 20.4827 17.0469 -6.71625
1226 2 18.5937 15.0895 -3.0888
1229 2 20.646 13.4133 -3.25318
1289 2 20.4343 16.9695 -3.11947
334 1 26.2856 15.2814 -6.61645
335 2 24.1757 15.3251 -4.97671
336 2 26.4053 13.1188 -5.02503
392 2 22.2383 16.9677 -4.85665
396 2 26.0056 17.2315 -4.96166
1230 2 22.4437 15.2515 -3.20138
1234 2 26.3131 15.2319 -3.59357
1293 2 24.336 17.1085 -3.29472
337 2 28.0689 13.2353 -6.87258
338 2 29.8439 15.1659 -6.90428
339 2 28.3759 14.9718 -5.00529
397 1 28.1329 17.1538 -6.6449
400 2 30.2597 17.0825 -5.13684
1238 2 29.9446 15.1771 -3.18389
1297 1 28.1687 17.0541 -3.52774
1301 2 31.7715 16.9934 -3.01914
343 2 31.6481 15.0859 -5.092
344 2 33.2735 13.1332 -5.00353
347 2 35.1685 15.0934 -4.87616
401 2 31.9083 17.0402 -6.97142
404 2 33.5206 17.0306 -4.95898
1242 2 33.2795 14.9787 -3.25607
1245 2 35.1595 13.1936 -3.08734
1305 2 35.4303 16.9461 -3.01359
348 2 37.0331 13.2553 -4.84661
351 2 38.7876 15.1331 -4.8811
408 2 37.2105 16.9916 -4.91816
1246 2 37.1149 15.1374 -3.12736
1249 2 38.8939 13.1779 -3.14821
1309 2 39.0317 17.018 -3.20995
352 2 40.837 13.1636 -4.86275
1250 2 40.7639 14.9767 -3.24847
354 1 44.6671 14.9263 -6.90985
355 1 42.8184 14.8306 -4.98833
412 1 40.9763 16.9334 -4.91529
416 2 44.4918 16.9749 -4.99499
1254 2 44.6351 14.6897 -3.09271
1313 2 42.926 16.7875 -3.10276
357 2 46.4199 13.0644 -7.06832
358 2 48.2425 15.064 66.8008
359 2 46.5297 14.8852 -4.9926
360 2 48.3356 13.0694 -5.06662
417 2 46.3654 16.8426 -6.70738
420 2 48.4088 16.801 -4.97708
1258 2 48.4321 14.8477 -3.20032
1317 1 46.4973 16.8501 -3.25688
362 2 -3.4174 18.6478 66.6296
363 2 -4.95202 18.7905 -5.12507
367 1 -1.52538 18.727 -5.18474
421 2 50.162 20.6324 66.6136
424 2 -3.26782 20.7389 -5.30655
1262 2 -3.18308 18.6856 -3.11984
1321 2 -4.91499 20.5265 -3.33748
1325 2 -1.40954 20.6181 -3.29178
1322 2 -3.16272 22.2789 -3.32551
371 2 2.27778 18.7509 -5.13782
428 2 0.437433 20.5403 -5.07511
429 2 2.22394 20.7071 66.7071
1266 2 0.340268 18.6679 -3.21478
1329 2 2.20987 20.3445 -3.30876
370 2 4.14228 18.6864 -6.93834
432 2 4.05158 20.5334 -5.22998
1270 2 4.21397 18.6063 -3.43602
426 2 0.37159 22.5466 66.6538
374 2 7.75812 18.6405 66.6132
375 2 6.01039 18.7032 -5.14002
433 2 5.96109 20.5771 66.7846
436 2 7.85952 20.6554 -5.16638
1274 2 7.89499 18.5234 -3.44831
1333 2 5.98276 20.5585 -3.37814
1334 2 7.72541 22.3812 -3.20482
378 1 11.4951 18.8483 66.477
379 1 9.66995 18.6441 -5.20718
437 2 9.61831 20.7882 66.585
440 2 11.4841 20.8013 -5.16662
1278 2 11.4071 18.7041 -3.31137
1337 2 9.58578 20.6443 -3.35831
1341 2 13.1332 20.7119 -3.36454
438 2 11.3946 22.6023 66.607
1338 2 11.3541 22.5919 -3.24726
382 2 15.003 18.8065 66.9027
383 2 13.192 18.7691 -5.05556
387 2 16.8465 18.7248 -4.93376
441 2 13.3584 20.6663 66.5704
444 2 14.8843 20.8065 -5.08378
1282 2 14.9549 18.8433 -3.28036
1345 1 16.8179 20.761 -3.17259
443 2 13.1691 22.5633 -5.21743
1342 2 14.9577 22.7138 -3.21317
391 2 20.5558 18.9265 -4.92116
448 1 18.7559 20.8371 -4.92726
1286 1 18.7235 18.8508 -3.02128
1349 2 20.6463 20.5835 -3.06191
452 2 22.3514 20.7381 -4.97207
1290 2 22.3845 18.7544 -3.10786
1350 2 22.478 22.5069 -3.24887
394 1 26.1186 19.0055 -6.66777
395 2 24.0483 18.8878 -4.9118
453 2 24.2402 20.776 -6.59357
456 2 26.2625 20.931 -4.9218
1294 2 26.241 18.977 -3.28888
1353 2 24.3529 20.6746 -3.35769
454 2 26.1472 22.5748 -6.80847
455 2 24.3475 22.6609 -4.9485
1354 2 26.2532 22.6756 -3.31698
398 2 30.0975 19.1581 -6.97967
399 2 28.2747 19.1641 -5.14368
457 2 28.081 20.9267 -6.89447
460 2 29.9986 20.9568 -5.20747
1298 2 30.0333 18.807 -3.20445
1357 2 28.1332 20.8617 -3.33004
461 2 31.8994 20.8255 66.8352
459 2 28.0336 22.7623 -5.14138
463 2 31.9227 22.632 -5.02357
403 2 31.7165 18.9095 -5.05781
407 2 35.4381 18.8145 -4.87474
464 2 33.6521 20.7684 -4.98842
1302 1 33.6245 18.9474 -3.00914
1361 1 31.7684 20.7771 -3.1175
1365 2 35.6657 20.6388 -3.28448
462 2 33.8186 22.4319 66.7292
467 2 35.5488 22.3597 -4.94997
411 2 39.0935 18.886 -4.99605
468 2 37.4037 20.6342 -5.08293
1306 2 37.354 18.8753 -3.08765
1369 2 39.1926 20.5977 -3.07748
466 2 37.5437 22.4352 66.6734
471 2 39.1774 22.3983 -4.93681
1366 2 37.4397 22.3003 -3.06797
414 2 44.5217 18.8734 -6.80667
415 2 42.8773 18.8878 -4.91648
472 1 41.0228 20.6615 -5.04168
476 2 44.6367 20.7529 -4.78327
1310 2 41.1619 18.8286 -3.12305
1314 2 44.6749 18.7788 -3.07171
1373 1 42.8313 20.733 -3.02725
474 1 44.5477 22.5193 66.8334
475 2 42.6996 22.5609 -4.87059
418 1 48.1733 18.7288 -6.71909
419 2 46.2342 18.8282 -4.98743
477 2 46.3442 20.642 66.9191
480 2 48.2622 20.6163 -5.03981
1318 2 48.2978 18.9134 -3.22748
1377 2 46.4424 20.6911 -3.21314
478 2 48.1852 22.5368 -6.97302
423 2 49.9979 22.3768 -5.10223
427 2 -1.25088 22.3915 -5.1969
483 2 -4.8442 25.9927 -5.06925
484 2 -3.22923 24.087 -5.24202
487 1 -1.32072 26.0929 -5.02504
1381 2 -5.04267 24.219 -3.34292
1382 2 -3.1386 25.9962 -3.25019
1385 2 -1.4869 24.077 -3.18535
431 2 2.20915 22.5065 -5.12312
488 2 0.556103 24.2312 -4.9983
491 2 2.26304 26.2995 -4.97386
1326 2 0.5189 22.4199 -3.29955
1386 2 0.573763 26.0946 -3.22709
1389 2 2.32796 24.4155 -3.04875
430 2 4.12908 22.5778 66.8179
492 2 4.1431 24.2942 -4.94118
1330 1 4.01029 22.2896 -3.28834
1390 2 4.0798 26.3365 -3.23103
435 2 6.03507 22.3783 -5.05741
495 2 5.94238 26.2203 -4.95774
496 2 7.61813 24.2828 -4.97071
1393 2 5.90546 24.2773 -3.20581
1394 2 7.56104 26.3561 -3.02224
1397 2 9.24781 24.4112 -3.14101
439 2 9.64702 22.5954 -5.00951
498 2 11.18 26.3155 -6.93403
499 2 9.40639 26.129 -4.97732
500 2 11.2017 24.3892 -5.15722
1398 2 11.1512 25.9931 -3.19485
501 2 13.1213 24.4933 66.7573
503 2 12.9262 26.1421 -5.02064
1401 2 13.0618 24.291 -3.28999
447 2 16.8135 22.6455 -4.91484
504 2 15.046 24.4549 -5.02957
507 2 16.9878 26.1562 -4.62793
1402 2 14.9803 26.0597 -3.11474
1405 2 16.9364 24.289 -2.95215
451 2 20.5772 22.7444 -4.90769
508 2 18.7634 24.4459 -4.78986
511 2 20.6519 26.3167 -4.79738
1346 2 18.9159 22.5717 -2.96224
1406 2 18.7958 26.1584 -2.84832
1409 2 20.7323 24.441 -3.05263
512 2 22.4129 24.4315 -4.87089
514 2 26.1718 26.1519 -6.834
515 2 24.3072 26.3147 -5.01053
516 2 26.1076 24.5432 -4.96338
1410 2 22.5232 26.212 -3.06895
1413 2 24.3416 24.4937 -3.16874
1414 2 26.3011 26.2656 -3.16188
458 2 30.001 22.6635 -6.96968
517 2 28.025 24.4435 66.7091
518 2 29.986 26.0004 66.6711
519 2 28.1203 26.1142 -5.06081
520 2 30.0303 24.3662 -5.07782
1358 2 29.9221 22.6958 -3.38593
1417 2 27.9174 24.5402 -3.1547
1418 2 30.0023 25.9504 -3.18165
521 2 31.9695 24.2984 -6.80208
522 1 33.9356 26.027 66.6177
523 2 31.8288 26.0531 -5.07503
524 2 33.9226 24.199 -5.0202
525 2 35.6391 24.0472 66.7899
527 2 35.7213 25.9739 -4.89672
1362 2 33.6416 22.5321 -3.11557
1421 2 31.9504 24.3186 -3.13053
1422 2 33.8019 25.8277 -3.12227
1425 2 35.6937 24.1931 -3.16763
526 2 37.3083 26.1571 -6.9367
528 2 37.4111 24.1089 -4.98053
529 2 39.2202 24.2973 66.7564
531 1 39.0182 26.1084 -4.86249
1426 2 37.314 25.9926 -2.82327
1429 2 39.2685 24.155 -3.01657
1370 2 41.028 22.558 -3.12934
532 2 40.8516 24.3878 -4.89239
535 2 42.5995 26.2001 -4.72451
536 1 44.5845 24.3536 -4.78185
1374 2 44.8019 22.7129 -2.74552
1430 2 41.0086 26.1554 -2.92213
1433 2 42.7562 24.4334 -2.94697
1434 2 44.5484 26.1237 -2.82617
479 2 46.5646 22.4643 -4.8866
537 2 46.2899 24.3297 66.8376
539 2 46.4017 26.2279 -4.7089
540 2 48.2093 24.2845 -4.85034
1378 2 48.4799 22.3344 -3.15175
1437 2 46.4915 24.4189 -2.85032
1438 2 48.5666 26.0223 -3.05308
543 2 -4.96489 29.8243 -4.92835
544 2 -3.08679 28.0616 -4.89714
547 2 -1.44275 29.9795 -5.09699
1441 2 -4.73909 27.7332 -3.10127
1442 1 -3.12849 29.8541 -3.05404
1445 2 -1.12513 28.0247 -3.19848
1505 2 -1.41328 31.8285 -3.14509
548 2 0.585415 28.1665 -5.08407
551 2 2.31986 29.906 -5.01707
1446 2 0.4077 29.9933 -3.30673
1449 2 2.3532 28.074 -3.19141
552 2 4.20274 28.2084 -4.96556
1450 2 4.11325 29.9923 -3.09579
608 2 0.279188 31.7539 -5.03925
1509 2 2.1099 31.9438 -3.17017
612 1 4.08238 31.7483 -4.9845
555 2 6.03343 29.9576 -5.02032
556 2 7.74015 28.0412 -4.97585
1453 2 5.84287 28.0897 -3.08561
1454 1 7.73027 29.9329 -3.16945
1513 2 5.85048 31.8919 -3.17167
557 2 9.49836 28.1379 -6.80457
558 2 11.2995 29.7092 66.8174
559 2 9.53618 29.8013 -4.9345
560 2 11.2033 27.8389 -4.87061
1457 2 9.51609 27.9566 -3.0471
1458 2 11.0888 29.9211 -2.96859
563 2 12.9354 29.7862 -4.83261
1461 2 12.8655 28.051 -3.02038
564 1 14.8398 27.855 -4.90643
565 1 16.8666 27.837 -6.77636
567 1 16.7457 29.7319 -4.95925
1462 2 14.8449 29.8376 -3.0522
1465 2 16.6877 27.9938 -2.96186
566 2 18.7097 29.8855 -6.81006
568 1 18.7107 28.0771 -4.71388
569 2 20.5286 28.0774 -6.70032
571 2 20.6637 29.9193 -4.91982
1466 2 18.7602 30.0395 -3.20234
1469 2 20.802 28.0625 -3.13064
1470 2 22.5236 29.9431 -3.31279
570 2 22.6088 29.93 -6.69508
572 2 22.4161 28.0389 -5.01034
573 2 24.5577 28.0584 -6.80828
574 2 26.1609 29.8804 -6.68771
575 2 24.3354 29.7467 -5.0148
576 2 26.2912 27.8396 -4.95074
1473 2 24.2712 27.934 -3.10105
1474 1 26.1535 29.7995 -3.07851
577 2 28.0536 27.8066 -6.95711
578 1 29.974 29.7419 -6.80279
579 1 28.0918 29.6323 -4.89766
580 2 29.8797 27.8437 -4.99128
1477 2 28.217 27.8284 -3.01112
1478 2 30.0247 29.6669 -2.97684
583 1 31.842 29.6515 -4.96201
1481 1 31.8268 27.7292 -3.07368
584 1 33.857 27.8169 -4.91847
587 2 35.5708 29.7403 -5.00511
1482 2 33.6968 29.7014 -2.93229
1485 2 35.5689 27.8888 -2.99882
644 2 33.7306 31.5415 -4.9936
645 2 35.5191 31.7043 -6.78534
1541 2 31.7686 31.61 -3.09789
1545 1 35.4737 31.6405 -3.16996
588 2 37.1061 27.8757 -4.94492
591 2 39.047 29.8178 -4.77397
1486 2 37.2354 29.771 -3.07639
1489 2 39.0389 28.1426 -3.09466
590 2 41.04 29.9187 -6.68238
592 2 40.9177 28.125 -4.94387
1490 2 41.0296 30.029 -3.17347
648 2 37.312 31.7419 -4.87881
1549 2 39.0588 31.8173 -3.07596
652 2 40.9121 31.7116 -4.9278
593 2 42.9393 28.0619 -6.63583
594 2 44.7043 29.9509 66.9755
595 2 42.8085 29.9839 -4.94705
596 2 44.4698 27.7635 -4.70843
1493 2 42.6777 27.8951 -3.01916
1494 2 44.2406 29.9136 -3.04446
653 2 42.8535 31.9403 -6.65509
656 2 44.6492 31.8076 -4.87304
1553 2 42.7267 31.9475 -3.19
597 2 46.349 27.9875 -6.63237
599 1 46.368 29.653 -4.57528
600 1 48.4009 27.897 -4.81662
1497 2 46.6313 27.8923 -2.80759
1498 2 48.6722 29.763 -2.99618
657 2 46.5058 31.6341 -6.55541
660 2 48.3266 31.5494 -4.75982
602 2 -3.27411 33.686 -6.65596
603 2 -5.14046 33.5713 -4.71833
604 2 -3.16075 31.7934 -4.91389
607 2 -1.35728 33.6853 -5.01479
661 2 50.0359 35.4196 -6.53062
664 2 -3.23727 35.5394 -4.94273
665 2 -1.53251 35.5915 -6.7733
1502 2 -3.1576 33.6825 -3.16553
1561 1 50.1492 35.6743 -2.99174
1565 2 -1.52387 35.7117 -3.19619
611 2 1.97081 33.6794 -5.03294
668 2 0.255465 35.4487 -5.06444
669 2 2.13604 35.5547 66.8626
1506 2 0.324562 33.9008 -3.03396
1569 2 2.09285 35.6341 -3.39288
672 2 3.91709 35.5538 -5.1356
1510 1 3.98686 33.8125 -3.2424
615 2 5.92075 33.6668 -5.06917
616 2 7.81472 31.8638 -5.01836
676 2 7.73875 35.4244 -5.13032
1514 2 7.69766 33.7171 -3.14509
1573 2 5.93997 35.6118 -3.27778
617 2 9.46921 31.5125 66.7454
618 1 11.2434 33.5275 66.7318
619 2 9.56009 33.6068 -4.83459
620 2 11.1708 31.6182 -5.08112
677 2 9.5897 35.5141 66.6524
680 2 11.3919 35.4832 -4.96838
1517 2 9.45509 31.8654 -3.14373
1518 2 11.388 33.6299 -3.17362
1577 2 9.51853 35.5251 -3.17106
621 2 13.1512 31.5382 -6.91703
623 2 13.0512 33.5441 -5.14352
1521 2 12.94 31.7015 -3.3232
1581 2 13.0557 35.6029 -3.18394
624 2 14.7762 31.6148 -4.95986
625 2 16.6907 31.6246 66.8523
627 2 16.6105 33.4322 -4.9571
681 2 13.1235 35.3127 -6.95318
684 2 14.8389 35.5372 -5.21481
1522 2 14.7528 33.63 -3.36747
1525 2 16.6918 31.637 -3.19826
1585 2 16.5897 35.2452 -3.32187
628 2 18.6359 31.6911 -4.97166
629 2 20.6818 31.8229 -6.75098
631 2 20.5379 33.5199 -4.89106
688 2 18.4134 35.1153 -4.9216
1526 2 18.6579 33.3568 -3.23332
1529 2 20.6785 31.7895 -3.13591
1589 2 20.2626 35.2523 -3.00759
632 2 22.4912 31.8443 -4.89099
633 2 24.2787 31.764 -6.75702
634 2 26.0914 33.4881 -6.72476
635 2 24.2758 33.5517 -4.87364
636 2 26.0598 31.6484 -5.00995
692 2 22.4445 35.3562 -4.83812
696 2 26.2419 35.2615 -4.75097
1530 2 22.2859 33.5869 -3.0456
1533 2 24.3964 31.6897 -3.14926
1534 2 26.2161 33.4639 -3.04295
1593 2 24.4471 35.3183 -3.024
637 2 27.9239 31.5447 -6.70697
639 2 27.9362 33.3044 -4.73246
640 2 29.9881 31.4516 -4.63438
697 1 28.0663 35.2078 -6.61492
700 1 29.899 35.2561 -4.78076
1537 2 28.0693 31.7556 -3.00813
1538 2 29.9768 33.3994 -3.04274
1597 2 28.1175 35.3267 -2.91224
642 2 33.632 33.5608 -6.7142
643 2 31.911 33.293 -4.98862
647 2 35.5204 33.6455 -5.00217
701 2 31.6351 35.3177 -6.70286
704 2 33.6394 35.4462 -5.15851
705 2 35.5955 35.4282 66.8376
1542 2 33.7442 33.3632 -3.15257
1601 1 31.8931 35.3063 -3.18646
1605 2 35.3988 35.5152 -3.22638
651 2 39.0367 33.6502 -4.95146
708 2 37.3512 35.8534 -5.01441
709 2 39.1594 35.6345 -6.62176
1546 2 37.1434 33.7895 -3.29139
1609 2 39.0414 35.5029 -3.21068
650 2 40.959 33.7494 -6.60727
712 2 40.8722 35.6487 -4.80521
1550 1 40.884 33.7245 -3.06071
654 2 44.6991 33.679 -6.56853
655 2 42.8014 33.7788 -4.89822
713 2 42.8265 35.5417 -6.44188
716 2 44.8051 35.4969 -4.72554
1554 2 44.6283 33.479 -3.09196
1613 2 42.9725 35.4977 -3.12806
1501 2 50.2926 31.6726 -3.04933
658 2 48.4283 33.4155 -6.36579
659 2 46.5999 33.5377 -4.77114
717 2 46.546 35.3851 -6.57794
720 2 48.3206 35.5932 -4.61924
1557 2 46.504 31.6501 -3.06521
1558 2 48.381 33.4769 -2.91552
1617 2 46.5257 35.3641 -2.89925
662 2 -3.48785 37.3769 66.965
663 2 -5.14168 37.4347 -4.98162
667 2 -1.52393 37.5006 -5.07407
724 2 -3.29576 39.3068 -5.05835
725 2 -1.51166 39.1638 -6.98433
1562 2 -3.29766 37.6074 -3.21198
1621 2 -5.11288 39.3919 -2.99061
1625 2 -1.51677 39.2727 -3.17231
722 2 -3.28736 40.9321 -7.03333
666 2 0.456206 37.3843 -6.88312
671 2 2.21822 37.4141 -5.11767
728 2 0.41832 39.2886 -5.12538
729 2 2.22158 39.2886 66.6917
1629 2 2.15613 39.1067 -3.36195
670 2 4.08177 37.3451 66.6732
732 2 4.00876 39.1388 -5.10286
674 2 7.72393 37.2089 66.8634
675 2 5.7928 37.2485 -5.19542
733 2 5.80485 39.0841 66.7363
736 2 7.67339 39.1096 -5.05587
1570 2 4.15777 37.427 -3.26901
1574 2 7.78122 37.2703 -3.40895
1633 2 5.91572 39.1241 -3.28622
679 2 9.79677 37.1701 -5.02652
740 2 11.4176 39.3032 -4.93589
1578 2 11.217 37.5298 -3.09898
1637 2 9.44346 39.2028 -3.2134
739 2 9.70859 41.0786 -4.96755
1638 2 11.5793 41.334 -3.21614
683 2 13.0362 37.3156 -4.96491
687 2 16.7992 37.2454 -4.98624
744 2 15.0354 39.2208 -4.9924
745 2 16.7552 39.1202 -6.62513
1582 2 14.9303 37.2134 -3.18342
1641 1 13.2946 39.2279 -3.05556
1645 2 16.8031 39.23 -3.16783
743 2 13.2288 41.1876 -4.97833
1642 2 15.058 41.1931 -3.14638
691 1 20.4772 37.0898 -4.79679
748 2 18.5048 38.931 -4.92997
1586 2 18.5568 37.1619 -3.18895
1649 2 20.318 38.8567 -3.0044
752 2 22.3972 38.9969 -4.71131
1590 2 22.3188 37.2027 -3.06658
1650 2 22.2991 40.9736 -2.99734
694 1 26.1013 37.0607 -6.64051
695 1 24.2887 37.2175 -4.79029
756 2 26.2427 39.1822 -4.75679
1594 2 26.1545 37.3821 -2.87487
1653 2 24.4454 39.2216 -3.05041
755 2 24.1906 40.9116 -4.73489
1654 2 26.232 40.9247 -3.00486
698 2 29.9465 37.0964 -6.66448
699 1 28.0358 37.2059 -4.67233
760 2 29.7709 39.32 -4.72421
1598 2 30.0243 37.2551 -2.98831
1657 2 28.2032 39.3113 -2.96629
759 2 28.1306 41.2186 -4.6432
1658 2 29.8521 41.194 -2.89615
702 2 33.3627 37.1673 -6.70476
703 2 31.6669 37.4086 -4.89282
707 2 35.3502 37.3425 -5.08185
764 2 33.4433 39.2714 -4.92438
1602 2 33.6442 37.3497 -3.39631
1661 2 31.7246 39.1798 -3.12305
1665 2 35.3979 39.0959 -3.20424
763 2 31.5487 40.985 -4.79561
767 2 35.2943 40.9387 -4.8488
1662 2 33.5265 41.0267 -3.04753
711 2 39.165 37.6335 -5.03383
768 2 37.3252 39.1755 -5.04208
1606 2 37.2507 37.4968 -3.14589
1669 2 39.1556 39.1046 -2.98812
772 2 41.0685 39.2469 -4.78533
1610 1 40.9427 37.4253 -2.91555
1666 1 37.3376 40.8451 -3.06332
715 2 42.8731 37.401 -4.62352
776 2 44.6183 39.2192 -4.66267
1614 2 44.8632 37.2916 -2.96531
1673 2 42.9365 39.1829 -2.75795
1674 2 44.6906 41.0963 -2.74183
721 2 50.0756 39.0874 66.784
718 2 48.1675 37.2107 -6.46653
719 2 46.5273 37.3243 -4.66149