ITEM: TIMESTEP
4000
ITEM: NUMBER OF ATOMS
18000
ITEM: BOX BOUNDS pp pp pp
-5.1874808839449855e+00 5.0187480883945206e+01
-5.1874808839449855e+00 5.0187480883945206e+01
-6.9166411785935225e+00 6.6916641178593522e+01
ITEM: ATOMS id type x y z
2 2 -3.23404 -3.40258 -6.9225
64 2 -3.3494 -1.38437 -5.02902
5 2 -1.60613 49.9632 67.049
7 2 -1.45544 -3.43444 -5.18772
6 2 0.297064 -3.37411 -6.95522
8 2 0.182237 50.1905 -5.18701
11 2 2.07191 -3.44019 -5.29708
9 2 2.12705 50.2438 66.8884
910 1 3.96827 -3.42062 -3.4322
12 2 4.05242 50.0673 -5.31534
913 2 5.91189 50.0005 -3.37744
10 2 3.97913 -3.39693 -7.09328
15 2 6.02233 -3.2599 -5.2485
76 2 7.7269 -1.35216 -5.3142
914 2 7.77342 -3.30272 -3.54144
19 1 9.80803 -3.43541 -5.31235
80 2 11.4916 -1.52159 -5.14979
23 2 13.1351 -3.4488 -5.10727
27 2 16.7959 -3.50135 -5.01732
31 2 20.3908 -3.47093 -5.23999
88 2 18.4925 -1.54249 -5.16624
28 2 18.5829 50.1215 -5.10646
30 1 22.3582 -3.48397 -6.96881
92 2 22.6049 -1.61122 -5.15915
32 2 22.3128 50.1894 -4.93421
35 2 24.4762 -3.29506 -5.05463
93 2 24.3533 -1.56245 -6.9622
36 1 26.3779 50.1635 -5.0048
39 2 28.1307 -3.24724 -5.06304
40 2 29.9447 -5.22521 -4.91439
100 2 30.0004 -1.62278 -5.16521
38 2 29.8673 -3.35937 -6.85213
43 2 31.8112 -3.45701 -5.01894
42 2 33.4492 -3.27422 66.9584
44 2 33.6945 50.1803 -5.03972
101 2 31.8272 -1.63421 66.7459
104 1 33.717 -1.54862 -4.82659
41 2 31.5823 -5.14331 -6.83784
45 2 35.3136 -5.13522 -6.87692
47 2 35.4914 -3.4197 -4.86539
46 2 37.2589 -3.29782 -6.81748
49 2 39.0559 -5.17709 -6.71905
51 2 38.9571 -3.47253 -4.96583
108 2 37.269 -1.48071 -4.83676
55 2 42.9559 -3.10051 -4.88946
50 2 41.1603 -3.29904 -6.72514
113 2 42.9596 -1.47924 -6.86388
116 2 44.8842 -1.48919 -4.97082
59 2 46.7512 -3.12904 -5.19519
54 2 44.8334 -3.18278 -6.87604
117 2 46.5566 -1.40369 -6.88835
3 2 50.3335 -3.17293 -5.12138
58 2 48.4377 -3.24719 -6.79033
124 1 -3.30088 2.16819 -5.1528
125 2 -1.5636 2.0145 -7.01019
61 2 -5.07316 -1.57896 -6.89913
65 2 -1.5171 -1.58761 -6.95771
62 2 -3.51041 0.202978 -7.01013
68 2 0.364361 -1.46913 -5.24827
67 2 -1.45558 0.392494 -5.23059
69 2 2.30825 -1.49005 -6.87468
72 2 4.14476 -1.5003 -5.24119
71 2 2.14639 0.324327 -5.2052
973 2 5.8632 -1.40047 -3.48934
75 2 5.95195 0.297956 -5.3719
974 2 7.86663 0.261375 -3.38053
79 2 9.66476 0.26015 -5.21357
140 2 11.4999 2.09374 -5.03672
84 2 14.8407 -1.57007 -5.17984
83 2 13.2599 0.380659 -5.03383
144 2 15.1181 2.11429 -5.15488
87 2 16.5668 0.198116 -5.09452
91 2 20.4256 0.218027 -5.16896
148 1 18.6694 2.08739 -5.13508
152 2 22.1524 2.12789 -5.24709
95 2 24.3439 0.33453 -5.23868
96 2 26.2308 -1.53406 -5.04195
94 2 26.2778 0.310146 66.8669
156 1 26.2854 2.25861 -5.08565
99 2 28.0374 0.406405 -5.16613
160 2 29.7697 2.26129 -5.16095
103 2 31.7352 0.357692 -5.04911
165 2 35.2576 2.18442 67.061
109 2 39.0356 -1.52676 -6.70401
107 2 35.5092 0.437323 -5.04215
106 2 37.1325 0.241178 -6.76766
111 2 39.0125 0.361361 -4.95906
112 2 40.9875 -1.53226 -4.9185
115 1 42.8661 0.482743 -4.96351
119 2 46.6285 0.379044 -5.0053
114 2 44.7652 0.340881 -6.76687
177 2 46.6732 2.13575 -6.86433
120 2 48.4654 -1.32881 -5.07117
63 2 50.2274 0.385993 -5.13646
118 2 48.4008 0.396708 -6.88097
122 2 -3.48552 4.01548 -7.05914
127 2 -1.62275 4.02641 -5.24111
185 2 -1.49636 5.93528 -6.9989
128 1 0.310604 2.16805 -5.08553
132 2 3.92755 2.22211 -5.25691
131 2 2.11567 4.07986 -5.14736
135 2 5.7616 3.88691 -5.12407
192 2 4.12628 5.65812 -5.14452
1093 2 6.02481 5.77884 -3.43455
136 2 7.87067 2.0214 -5.2174
196 2 7.76254 5.75531 -5.14616
139 2 9.69841 3.88595 -5.05433
197 2 9.69808 5.86485 -6.94083
200 2 11.4408 5.99574 -5.11352
138 2 11.6094 4.18411 -6.933
143 2 13.167 4.08863 -5.17106
147 1 16.8398 4.05716 -5.24977
141 2 13.2799 2.24026 -6.84056
208 2 18.7224 5.96941 -5.07506
155 1 24.1508 4.08357 -4.87969
151 2 20.6672 4.20254 -5.05277
212 2 22.5812 5.94334 -5.16403
216 2 26.1647 5.98597 -5.15748
158 2 29.7734 3.98333 66.9198
159 2 28.0642 4.13997 -5.04224
220 2 29.8127 5.86562 -5.15673
163 2 31.5863 4.15633 -5.17519
164 2 33.571 2.02841 -4.99881
167 2 35.4458 3.9496 -5.12438
162 2 33.5326 3.9669 67.0823
168 2 37.2974 2.10781 -5.07109
169 2 39.2311 2.10654 -6.85897
171 2 39.0964 4.21557 -5.09187
166 2 37.3259 3.9782 66.9436
229 2 39.0256 5.96558 -6.88556
172 2 40.7691 2.29525 -4.99172
170 2 40.9463 4.15778 -6.87142
175 1 42.8361 4.05149 -5.01502
232 2 41.0012 6.03257 -5.14587
233 2 42.9342 6.07596 -6.86801
176 2 44.785 2.19513 -5.15841
179 2 46.7528 3.89112 -5.16287
174 2 44.7554 4.07331 66.9771
180 2 48.4388 2.12299 -5.18364
123 2 -5.07472 4.09674 -5.11941
182 2 -3.28476 7.73638 -6.84865
184 2 -3.33589 5.80221 -5.17567
187 2 -1.56426 7.70868 -5.07698
183 2 -5.1319 7.84946 -5.1693
188 2 0.402063 5.92149 -5.19184
248 2 0.245641 9.61664 -4.95126
186 2 0.260502 7.77468 -6.8017
191 2 2.14676 7.67637 -5.22183
252 2 4.12632 9.50613 -5.11791
195 2 5.96273 7.79317 -4.95836
256 2 7.68481 9.57567 -5.14525
199 2 9.52662 7.75822 -5.04431
203 2 13.1509 7.76733 -5.32288
260 2 11.3612 9.75469 -5.13387
204 1 14.933 5.85824 -5.21776
264 2 15.0556 9.49849 -5.14832
207 2 16.8745 7.73851 -5.1127
206 2 18.5831 7.60116 -6.8255
265 2 16.7901 9.47391 -6.97854
1165 2 16.8351 9.48529 -3.47236
211 2 20.5441 7.84942 -5.25241
1169 1 20.5517 9.72924 -3.2476
210 2 22.3962 8.03154 -6.88833
215 2 24.2928 7.71908 -5.12439
217 2 28.1243 5.95055 -6.8534
219 2 28.1018 7.81621 -5.20369
223 2 31.6438 7.83642 -5.23529
280 2 29.8274 9.57127 -5.10458
224 2 33.5998 5.79226 -5.13552
225 2 35.335 6.17066 66.9297
227 2 35.3942 7.70017 -4.97967
284 1 33.6304 9.6301 -5.06402
228 2 37.1995 5.87494 -5.0973
231 2 39.0124 7.68117 -5.04966
288 2 37.1866 9.55469 -5.1104
1189 2 38.9887 9.65222 -3.23152
289 2 38.8728 9.67307 -6.94203
292 2 40.889 9.6379 -4.98927
235 2 42.8361 7.72654 -5.04207
236 2 44.9134 5.75503 -5.12776
293 2 42.9399 9.68404 -6.78714
296 2 44.824 9.7888 -5.17305
239 2 46.64 7.82994 -5.16175
240 2 48.3131 5.98214 -5.12875
300 2 48.4251 9.56583 -5.07969
1197 2 46.544 9.64542 -3.34477
244 2 -3.36731 9.6741 -5.01137
304 2 -3.52735 13.4406 -5.07502
243 2 50.228 11.4833 -5.02859
247 2 -1.53548 11.433 -5.16404
251 2 2.16955 11.5495 -4.99367
308 2 0.311151 13.529 -5.04706
312 2 4.03052 13.3808 -4.99911
255 1 5.79322 11.5246 -5.09154
259 2 9.43328 11.3167 -5.13617
316 2 7.75295 13.3051 -4.95627
320 1 11.415 13.167 -4.97948
263 2 13.3007 11.3538 -5.07328
267 2 16.7161 11.4566 -5.2935
324 2 15.0802 13.2157 -5.16577
266 2 18.6593 11.5258 66.9515
268 2 18.5993 9.62063 -5.17912
271 2 20.4962 11.6403 -5.07957
328 2 18.6269 13.2518 -5.19545
329 2 20.7598 13.345 66.8894
269 2 20.602 9.84561 -6.80834
270 2 22.4837 11.4376 -6.81373
272 2 22.5203 9.60466 -5.02047
1170 2 22.4475 11.4763 -3.35865
275 2 24.4945 11.345 -5.03608
276 2 26.1624 9.56108 -5.07002
336 2 26.2365 13.1703 -5.06039
279 2 28.0558 11.3177 -5.00641
340 2 30.2063 13.3316 -5.24001
283 2 31.7291 11.4661 -5.23549
287 1 35.5027 11.4998 -4.99114
344 2 33.4924 13.511 -5.12865
345 2 35.4036 13.3622 66.9062
291 2 38.8166 11.5368 -5.16874
348 2 37.2238 13.4047 -5.12345
286 2 37.2472 11.5037 66.8975
349 1 39.0199 13.3362 -7.12983
352 2 40.8676 13.2661 -5.05698
290 1 40.8332 11.2982 -6.98434
295 2 42.8093 11.5158 -5.03427
356 2 44.7106 13.2951 -5.14022
299 2 46.4872 11.6002 -5.10589
360 2 48.4353 13.3609 -5.11823
303 2 50.0264 15.0532 -5.1479
364 2 -3.31643 16.9143 -5.07019
307 2 -1.47235 15.1269 -5.01211
368 1 0.327014 16.9608 -5.2615
311 2 2.11509 15.1548 -4.95459
372 2 3.95011 16.8465 -5.15498
315 2 5.67513 15.1253 -5.26889
376 2 7.62333 16.813 -5.07854
1273 2 5.6886 17.0282 -3.32907
319 2 9.52758 14.9718 -5.03565
380 2 11.3658 16.8785 -5.05681
1277 2 9.36503 16.648 -3.15478
323 1 13.2722 15.0357 -4.95123
327 2 16.7609 15.0085 -5.01736
384 2 15.1936 16.904 -5.11866
385 2 16.9532 16.9645 -6.76129
331 2 20.5912 15.054 -5.0865
326 2 18.6156 15.1137 66.9378
332 2 22.4147 13.4479 -4.96381
335 2 24.3809 15.0969 -4.94046
330 2 22.4859 15.0313 67.0163
334 1 26.312 15.1333 -6.896
1234 2 26.3763 14.9708 -3.19473
1233 2 24.5269 13.2089 -3.13007
339 2 28.2779 14.9062 -5.0671
343 2 31.901 15.1368 -5.20511
347 2 35.4513 15.2457 -5.2813
405 2 35.5296 17.1224 66.7628
351 2 38.9435 15.2568 -5.23053
408 2 37.132 17.0728 -5.11945
409 2 38.8579 16.9993 66.8342
412 1 41.0479 17.1595 -5.19134
350 1 40.8935 15.1605 66.9194
355 1 42.6819 15.0889 -5.10786
416 2 44.8493 16.8419 -5.17996
417 2 46.5749 16.9683 66.9288
358 2 48.3515 15.3387 66.7149
359 2 46.581 14.983 -5.00647
420 2 48.3841 16.9829 -5.05289
363 2 -5.13214 18.5659 -5.07165
367 1 -1.71477 18.8906 -5.25797
1321 2 50.2015 20.5799 -3.19295
428 2 0.253526 20.5339 -5.14319
1329 2 2.1108 20.6888 -3.28494
371 2 2.19151 18.927 -5.0749
432 2 3.93457 20.5638 -5.35886
1270 2 4.07233 18.9025 -3.32236
375 2 5.77199 18.9001 -5.21749
436 2 7.66852 20.7716 -5.36347
1274 2 7.69051 18.7217 -3.2977
1333 2 5.92841 20.6458 -3.61033
1337 2 9.6921 20.6757 -3.30405
379 1 9.49172 18.7313 -5.13453
1278 2 11.4542 18.8595 -3.19442
383 2 13.3205 18.7268 -5.03618
382 2 14.7962 18.768 67.0366
387 2 17.079 18.7442 -5.08671
388 2 18.771 16.8413 -5.02545
389 2 20.6627 16.8492 -6.91955
391 2 20.5383 18.5198 -5.02443
386 2 18.8698 18.5756 -6.848
392 2 22.5218 16.9422 -4.95379
395 2 24.409 18.7483 -4.97804
393 2 24.3873 16.8491 67.0376
396 2 26.257 16.8678 -4.87986
394 1 26.2526 18.6937 67.0615
1294 2 26.3913 18.9665 -3.31625
397 1 28.1754 16.9097 66.9878
400 2 29.9879 16.8611 -5.09944
1297 1 28.1552 16.7948 -3.28912
399 2 28.3013 18.9149 -5.09164
404 2 33.6851 16.889 -5.07332
403 2 31.6583 18.5865 -5.12435
407 2 35.3919 18.7944 -5.12032
1365 2 35.209 20.6809 -3.37445
468 2 37.064 20.5655 -5.04595
411 2 38.8295 18.8626 -5.14528
472 1 40.7859 20.5269 -5.04855
410 2 40.9216 18.9864 66.8941
415 2 43.2047 18.7158 -5.40351
419 2 46.691 18.8217 -5.06256
477 2 46.657 20.5996 66.9353
418 1 48.3976 18.7878 66.6178
480 2 48.4998 20.4969 -5.07291
424 2 -3.5516 20.7361 -5.38376
1322 2 -3.58375 22.4716 -3.38516
484 2 -3.30617 24.3126 -5.02862
1381 2 50.0683 24.3708 -3.36871
427 2 -1.52773 22.3682 -4.94066
431 2 2.15844 22.5756 -5.11956
488 2 0.365951 24.4037 -5.09177
430 2 3.96976 22.5658 -6.90074
492 2 3.88613 24.4929 -5.23456
493 2 5.82226 24.5743 66.9861
435 2 5.83924 22.6141 -5.31153
496 2 7.6868 24.386 -5.27116
440 2 11.3188 20.4947 -5.07788
1341 2 13.2654 20.6714 -3.36327
443 2 13.2076 22.3947 -4.95329
439 2 9.55084 22.5578 -5.2993
444 2 14.9004 20.6755 -5.10599
447 2 16.9821 22.5419 -5.01175
445 2 16.6775 20.7706 66.9342
448 1 18.8102 20.7459 -5.14612
451 2 20.7657 22.4568 -5.03832
446 2 18.8987 22.467 -6.99164
452 2 22.6244 20.5024 -4.87965
453 2 24.5347 20.5765 -6.92177
455 2 24.5266 22.4454 -5.11299
456 2 26.3124 20.6326 -5.186
1353 2 24.5756 20.8466 -3.26681
1354 2 26.3777 22.6193 -3.25597
460 2 30.0197 20.7092 -5.03446
1357 2 28.2806 20.6782 -3.33301
459 2 28.19 22.4521 -5.06945
1358 2 29.965 22.4907 -3.21501
461 2 31.8168 20.6316 -7.15028
463 2 31.8685 22.4456 -5.12511
464 2 33.4305 20.5932 -5.23561
521 2 31.7081 24.2907 -6.89313
524 2 33.5688 24.3004 -4.97819
467 2 35.4059 22.4823 -4.9937
528 2 37.2268 24.1961 -4.98517
471 2 39.0182 22.5174 -5.09125
475 2 42.8863 22.4138 -4.96697
476 2 44.8136 20.5838 -5.17147
474 1 45.0298 22.4479 66.7879
423 2 -5.34366 22.4349 -5.14687
479 2 46.7337 22.4 -5.18084
540 2 48.3308 24.1095 -5.08539
483 2 -4.94182 26.069 -5.10634
541 1 -4.83998 28.0115 66.8693
487 1 -1.51898 26.0837 -5.16051
491 2 1.94839 26.2992 -5.08253
490 2 3.94742 26.3876 -6.82429
495 2 5.82418 26.4283 -5.09471
499 2 9.71314 26.265 -5.17658
500 2 11.5763 24.2268 -5.1915
503 2 13.2709 26.0498 -4.97358
560 2 11.4617 28.0164 -5.08442
504 2 15.0638 24.2405 -5.04086
507 2 17.1127 25.9597 -5.01871
564 1 15.267 28.006 -4.79994
565 1 17.1323 28.0872 66.9111
508 2 18.9175 24.1622 -5.2676
511 2 20.7414 26.166 -5.20854
506 2 19.0473 26.05 66.8455
509 2 20.7578 24.1491 66.6588
512 2 22.6671 24.408 -5.17682
515 2 24.3264 26.2377 -5.24076
510 2 22.6059 26.2542 66.7397
516 2 26.2097 24.3778 -5.25428
576 2 26.2014 27.983 -5.22242
519 2 28.0453 26.1208 -5.13222
520 2 30.0514 24.3074 -5.11182
580 2 29.7538 28.1079 -5.21982
523 2 31.6659 26.1611 -4.90887
584 1 33.5878 27.9823 -5.15392
527 2 35.6852 26.0859 -5.06351
531 1 39.1312 26.143 -5.00811
588 2 37.3388 28.0242 -5.17335
532 2 40.9162 24.0846 -5.07453
535 2 42.7345 26.0264 -4.83814
536 1 44.6915 24.3705 -5.14979
537 2 46.5137 24.4298 66.7481
539 2 46.4636 26.1483 -4.85817
596 2 44.6919 27.8383 -4.96811
533 1 42.7929 24.3575 66.8864
534 2 44.6191 26.2309 66.9414
600 1 48.572 27.9949 -4.96742
538 1 48.3962 26.1354 66.8533
543 2 -5.13717 30.0522 -4.7629
544 2 -3.28183 28.0814 -4.99495
547 2 -1.47949 29.8083 -5.242
548 2 0.150675 27.9756 -5.14925
1446 2 0.360444 29.776 -3.39815
551 2 2.1183 29.8688 -5.12719
552 2 3.91725 28.1483 -5.14001
555 2 5.74191 29.9893 -5.09305
556 2 7.64745 28.2492 -5.10781
559 2 9.54365 29.8023 -5.02776
558 2 11.4825 29.9734 67.2512
563 2 13.2449 29.8569 -4.85062
620 2 11.3773 31.8426 -4.87375
567 1 17.1103 30.0229 -4.94238
624 2 15.0849 31.7488 -4.85365
625 2 16.8825 31.9267 67.1942
568 1 18.8508 27.9289 -4.945
569 2 20.7378 28.1345 -6.81872
628 2 18.7521 31.9562 -4.70952
571 2 20.5511 30.1042 -4.86879
1470 2 22.4441 29.9098 -3.21683
570 2 22.2377 30.1993 -6.82786
572 2 22.508 28.1902 -5.03721
575 2 24.1887 29.9963 -4.90584
574 2 26.1335 30.0402 66.9671
636 2 26.0531 31.8516 -5.20513
637 2 27.8131 31.931 66.7508
578 1 30.0146 30.0323 66.9069
579 1 27.9772 30.0574 -5.09367
640 2 30.1345 31.7076 -4.75852
583 1 31.8157 30.0047 -5.07568
644 2 33.727 31.8482 -5.2501
641 2 31.9169 31.8275 66.899
587 2 35.5034 29.8411 -5.03403
591 2 39.1261 29.7529 -4.96693
586 2 37.3167 29.915 66.8285
590 2 41.0432 29.779 67.0284
592 2 41.0566 28.1259 -4.99212
649 2 39.148 31.5564 66.8904
593 2 43.0131 28.0738 67.0332
594 2 44.7852 29.9112 -6.79543
595 2 42.9224 29.997 -4.95212
597 2 46.3959 28.0026 -6.71946
599 1 46.5806 29.8903 -4.72823
657 2 46.697 31.6933 -6.87613
660 2 48.5561 31.7682 -4.95697
598 1 48.4933 29.8249 -6.78546
602 2 -3.45696 33.6613 67.209
604 2 -3.27978 31.7688 -5.11887
601 2 -5.06007 31.7887 -6.89453
608 2 0.218754 31.7375 -4.82758
607 2 -1.78743 33.711 -4.87063
611 2 1.87405 33.5843 -5.17199
612 1 3.7037 31.7766 -5.11295
615 2 5.76258 33.6261 -5.01692
610 2 3.96792 33.6377 -6.90587
616 2 7.70735 31.8518 -4.88774
619 2 9.5896 33.5988 -4.96343
623 2 13.4165 33.7181 -4.98771
627 2 17.0118 33.796 -4.88417
1522 2 15.19 33.6569 -3.07593
1585 2 16.9755 35.5335 -3.02793
685 2 16.9797 35.4985 -6.79325
631 2 20.5376 33.6795 -4.90027
688 2 18.6975 35.6287 -4.85405
626 2 18.7956 33.7135 -6.7394
689 2 20.5265 35.3945 67.0778
629 2 20.4516 31.9202 66.9124
632 2 22.511 31.9958 -4.89665
633 2 24.0126 31.727 67.0034
635 2 24.3371 33.6676 -4.94241
692 2 22.3302 35.4839 -4.89666
630 2 22.3593 33.5975 -6.70011
693 2 23.9763 35.5061 67.2715
634 2 26.0481 33.6472 -6.68405
696 2 26.2794 35.4508 -4.65608
639 2 27.9951 33.4549 -4.76466
697 1 27.9973 35.2903 67.0768
700 1 30.0432 35.4502 -5.02945
701 2 31.8785 35.4685 67.0608
638 1 29.9472 33.405 66.9045
642 2 33.7579 33.6296 66.8913
643 2 32.0131 33.6069 -4.86472
645 2 35.5028 31.682 66.8237
648 2 37.3664 31.7684 -5.26966
647 2 35.5701 33.6008 -5.18117
651 2 39.1733 33.5021 -5.20185
646 2 37.2679 33.609 66.9804
652 2 40.8287 31.5695 -5.10802
650 2 40.979 33.5857 -6.74104
653 2 42.8885 31.6028 -6.60385
656 2 44.7756 31.9789 -4.81723
654 2 44.7179 33.3689 -6.74277
655 2 42.7876 33.7027 -4.9868
603 2 -5.12617 33.6863 -4.90763
658 2 48.4314 33.7387 -6.74693
659 2 46.6063 33.6357 -4.86838
717 2 46.4264 35.4107 -6.71
664 2 -3.41537 35.5634 -4.84379
665 2 -1.59017 35.444 -6.65919
662 2 -3.45679 37.4188 67.0985
667 2 -1.67958 37.2777 -5.16826
668 2 0.206952 35.4684 -4.91209
669 2 1.93249 35.5031 -6.84724
1569 2 2.08617 35.3564 -3.12111
671 2 2.1496 37.0662 -4.95664
672 2 3.84411 35.3741 -5.11061
675 2 5.76593 37.2361 -5.16143
676 2 7.70911 35.3747 -4.9099
674 2 7.68463 37.2143 -6.7524
1574 2 7.66939 37.2694 -3.26945
680 2 11.5179 35.5323 -4.75819
679 2 9.52801 37.2575 -4.9729
683 2 13.2692 37.3098 -4.85838
684 2 15.1613 35.5084 -4.91433
687 2 16.9679 37.4319 -4.89222
682 2 15.1612 37.3273 -6.69216
691 1 20.5711 37.5957 -5.01904
748 2 18.7122 39.2907 -4.8987
686 2 18.7652 37.4418 67.1581
749 2 20.5337 39.418 -6.89725
752 2 22.498 39.341 -4.9828
695 1 24.2812 37.4249 -4.8048
690 2 22.4334 37.5155 -6.86468
694 1 26.1597 37.2815 -6.82511
699 1 28.1295 37.4305 -4.7535
698 2 29.8946 37.4321 67.0004
703 2 31.769 37.5346 -4.92051
757 2 28.1833 39.1407 67.0004
704 2 33.6525 35.5609 -5.08924
702 2 33.6924 37.531 67.0179
707 2 35.4345 37.6093 -5.07346
1602 2 33.6609 37.332 -3.22771
705 2 35.4028 35.5858 66.9772
708 2 37.0701 35.6322 -5.04788
709 2 38.9684 35.3748 67.0358
712 2 40.8217 35.4193 -5.06099
711 2 38.9659 37.3967 -5.06102
710 2 40.9277 37.1182 -6.78768
713 2 42.9036 35.3001 -6.75866
716 2 44.6235 35.3137 -4.83751
715 2 42.7839 37.2685 -4.92343
714 1 44.6196 37.3272 -6.86277
661 2 49.9922 35.6487 -6.68729
720 2 48.3539 35.5488 -4.94574
663 2 -5.05279 37.3645 -4.86397
718 2 48.3389 37.432 -6.97261
719 2 46.4846 37.3119 -4.76227
724 2 -3.31483 39.2134 -5.09809
723 2 -5.1276 40.9381 -4.92734
728 2 0.442966 38.9397 -4.97179
1629 2 2.18282 38.9272 -3.24377
727 2 -1.50342 40.903 -5.05689
731 2 2.14232 40.6768 -5.1816
788 2 0.334971 42.6834 -5.0701
732 2 3.90518 38.8459 -5.17936
735 2 5.99863 40.8888 -5.193
736 2 7.68357 39.048 -5.11753
734 2 7.76183 40.9718 -6.88084
1634 2 7.55968 41.114 -3.22715
740 2 11.2452 39.2389 -4.95412
739 2 9.36622 41.0964 -4.85842
743 2 13.2752 40.7877 -5.08305
737 2 9.48933 39.0139 -6.77828
738 2 11.484 40.9397 -6.62881
741 2 13.2585 38.9088 -6.54836
744 2 15.0728 38.9783 -4.83766
745 2 16.799 39.225 -6.53333
747 2 16.8346 41.131 -4.80652
742 2 15.1808 40.9475 67.0898
805 2 16.8585 42.8101 -6.80411
751 2 20.284 41.1039 -4.95527
808 2 18.6002 42.8986 -5.00364
746 2 18.5899 41.0918 -6.76605
755 2 24.2704 41.1015 -5.05194
753 2 24.1716 39.225 66.8934
809 2 20.5812 42.5275 -6.65748
750 2 22.4469 41.063 -6.80418
756 2 26.2042 39.2485 -4.8735
754 1 25.9882 40.9212 66.9529
760 2 29.9496 39.1813 -4.77882
759 2 28.0036 40.9863 -4.90624
763 2 31.7903 41.1232 -4.95433
758 2 30.0153 40.9103 67.0977
761 2 31.9227 39.2092 66.9403
764 2 33.5363 39.2537 -4.86797
767 2 35.3416 41.1112 -5.19776
825 2 35.4144 42.9832 66.8265
765 2 35.593 39.1841 -7.07386
762 2 33.6338 40.9598 66.9472
768 2 37.1807 39.3148 -5.08234
828 1 37.3137 42.8252 -5.03184
772 2 40.9353 39.2651 -4.88873
771 2 39.1588 40.8869 -4.98837
829 1 39.1379 42.8591 -6.87879
832 2 41.0779 42.8547 -4.94846
769 2 39.175 39.1954 66.918
770 2 40.9963 40.8718 67.0659
776 2 44.6142 39.1553 -4.88161
775 2 42.8068 40.8506 -4.95693
773 2 42.7089 39.1188 -6.78411
774 2 44.6198 40.9496 67.1268
780 1 48.3126 39.2832 -5.05278
779 2 46.2737 41.0656 -4.87746
777 2 46.5427 38.9991 66.9492
784 2 -3.3684 42.7494 -5.26545
787 2 -1.3133 44.7396 -4.96772
786 2 0.196833 44.3671 66.7775
791 1 1.97132 44.5931 -4.92907
792 2 3.9428 42.8318 -5.06863
795 2 5.86258 44.4899 -5.1505
852 2 3.93562 46.3507 -5.21916
793 2 5.96222 42.6818 -6.84899
794 2 7.85645 44.5663 -6.91786
796 2 7.57583 42.8978 -4.93283
1693 2 5.78318 42.9085 -3.2593
799 2 9.67802 44.487 -5.01983
800 2 11.6689 42.7562 -4.92643
803 2 13.3128 44.6048 -5.00936
804 2 15.0797 42.7748 -4.82878
802 2 15.1639 44.7373 -6.82432
807 2 16.7397 44.6583 -4.92747
806 1 18.6631 44.6175 -6.91424
811 2 20.5189 44.6022 -4.99362
810 2 22.4488 44.6848 67.0667
812 2 22.2355 43.0313 -5.08522
815 2 24.2649 44.6517 -4.92278
813 2 24.2586 42.8734 66.9644
816 1 26.368 42.8913 -4.86597
814 2 25.9921 44.7828 66.9283
817 1 27.9736 42.7738 66.9471
818 2 29.8636 44.677 66.6991
819 2 28.3343 44.7018 -5.03716
820 2 29.9659 42.6425 -4.85281
880 2 29.8727 46.443 -5.06847
821 1 31.7142 42.8868 66.8899
823 2 31.7206 44.6222 -5.08559
824 2 33.5128 43.0051 -5.07359
822 2 33.6803 44.8421 66.7921
827 2 35.3047 44.6195 -4.98684
826 2 37.3884 44.8009 66.9687
885 2 35.4625 46.4514 66.8469
888 2 37.1893 46.5226 -5.10146
831 2 39.2835 44.6187 -4.87247
889 2 39.2183 46.3947 -6.66278
892 2 40.8955 46.4706 -4.92757
830 2 41.0591 44.7579 67.0057
893 1 42.8326 46.5531 66.8706
835 2 42.811 44.6978 -4.89515
836 2 44.5347 42.8935 -4.92853
839 2 46.3742 44.5355 -4.84322
896 2 44.7305 46.5132 -4.97016
833 2 42.8869 42.7038 66.958
834 2 44.5556 44.5397 66.9482
783 2 -5.14167 44.5509 -4.99832
838 2 48.2682 44.709 66.9103
840 2 48.2571 42.8353 -4.98041
900 2 48.4535 46.3337 -5.0741
781 1 49.9468 42.7765 66.9321
4 2 -3.46909 50.0558 -5.07246
841 2 -5.30569 46.5138 -7.03921
842 2 -3.50513 48.2721 -6.88731
844 2 -3.32862 46.4819 -5.02245
845 2 -1.37588 46.3589 66.884
847 2 -1.76828 48.2334 -5.14638
909 2 2.02582 50.1489 -3.36473
848 2 0.16838 46.5752 -5.03246
851 2 2.10334 48.3549 -5.14805
846 2 0.25337 48.2462 67.0028
855 2 5.91993 48.2832 -5.18462
16 2 7.78774 50.1391 -5.1531
856 2 7.75596 46.2585 -5.09012
859 2 9.67932 48.1516 -5.17232
20 2 11.6229 49.9578 -5.18274
860 2 11.7204 46.4989 -5.08544
24 2 15.0401 50.1189 -4.97811
863 2 13.4818 48.2567 -5.07695
864 2 15.1447 46.5508 -5.07795
867 2 16.8069 48.3939 -5.0123
29 2 20.4383 49.9559 -7.04642
868 2 18.5995 46.5739 -5.13568
871 2 20.4728 48.3208 -5.07728
869 1 20.4773 46.604 66.9807
870 2 22.2814 48.3993 -6.77651
872 2 22.3621 46.4701 -4.99581
873 1 24.3206 46.8295 66.9841
874 2 26.5874 48.4451 66.8805
875 2 24.2434 48.3541 -4.80589
876 1 26.3152 46.5372 -5.01299
877 2 28.0833 46.5039 66.8863
878 1 29.8428 48.3 66.9649
879 2 28.1166 48.347 -4.79354
883 2 31.7145 48.4296 -4.91579
884 2 33.702 46.619 -5.03291
881 2 31.6162 46.4667 66.9341
882 1 33.3885 48.3805 66.8473
48 2 37.2549 50.2787 -4.88442
887 2 35.4653 48.4735 -4.91774
886 1 37.2655 48.2677 -6.88127
52 2 40.9583 -5.24122 -4.92112
891 2 39.148 48.3304 -5.04077
890 2 40.8204 48.2514 -6.70245
53 2 42.7605 50.2221 -6.68963
895 2 42.8185 48.3461 -4.98564
56 1 44.8634 50.2928 -5.00955
894 2 44.5842 48.3948 -6.74469
57 2 46.6901 50.2162 -6.91974
897 2 46.4586 46.2964 -6.83856
899 2 46.6377 48.2106 -4.97049
1 1 -5.21583 50.1459 -6.87298
843 2 -5.11846 48.1904 -5.04395
60 2 48.2888 50.1889 -4.97866
898 2 48.2403 48.2302 -6.84022
902 1 -3.38475 -3.32703 -3.29858
905 2 -1.63296 50.0238 -3.38135
904 2 -3.3784 50.1125 -1.4896
907 2 -1.56736 -3.43777 -1.48039
906 2 0.231702 -3.35152 -3.53723
908 2 0.299703 50.2664 -1.60088
911 2 1.97237 -3.31295 -1.7255
915 1 5.95786 -3.34899 -1.61089
912 2 3.90993 50.0934 -1.51022
919 2 9.42337 -3.42088 -1.47013
918 2 11.485 -3.44258 -3.15664
920 2 11.3921 50.3055 -1.34708
980 2 11.4382 -1.50268 -1.46974
923 2 13.234 -3.39269 -1.34843
922 2 14.9667 -3.3044 -3.19798
981 2 13.2313 -1.54102 -3.14944
984 2 15.2104 -1.67394 -1.4261
985 2 16.8729 -1.62195 -3.28476
926 2 18.7373 -3.51699 -3.32941
989 1 20.5524 -1.71948 -3.49972
929 2 20.4103 50.0891 -3.31758
927 2 16.7288 -3.52477 -1.24974
931 2 20.5105 -3.43888 -1.45045
988 2 18.6209 -1.6477 -1.53161
928 2 18.7563 50.0461 -1.38639
930 2 22.3475 -3.49662 -3.39309
992 2 22.3173 -1.59227 -1.36142
932 2 22.2873 50.1881 -1.48236
934 2 26.2145 -3.23247 -3.19847
933 2 24.2272 50.1489 -3.15401
935 1 24.2716 -3.41864 -1.23245
996 2 26.3759 -1.56882 -1.42606
936 1 26.1245 50.0664 -1.25947
938 2 30.0737 -3.39135 -3.04588
997 2 28.1176 -1.5881 -3.24406
937 2 28.2239 -5.08219 -3.11154
939 2 28.013 -3.3244 -1.24465
940 2 29.9682 -5.23298 -1.15252
1000 2 29.8029 -1.55563 -1.29404
941 2 31.8084 50.2072 -2.93113
942 2 33.7077 -3.48056 -3.10357
945 2 35.34 50.0694 -3.13753
943 2 31.8445 -3.46501 -1.20614
947 2 35.5002 -3.29284 -1.32214
944 2 33.5453 50.2103 -1.18622
946 2 37.208 -3.17447 -3.13539
951 2 39.1858 -3.35241 -1.20723
950 2 40.9931 -3.46633 -2.97783
953 2 42.7195 50.3034 -3.29574
1013 2 43.0124 -1.47509 -3.23326
952 2 41.0495 50.094 -1.35015
955 2 42.9578 -3.28484 -1.50776
1012 2 41.2508 -1.4993 -1.39869
954 2 44.851 -3.32545 -3.16121
957 2 46.7396 50.0654 -3.11351
956 2 44.7761 50.3225 -1.40848
901 2 -5.30181 50.1163 -3.20836
958 2 48.4049 -3.41741 -3.26365
903 1 -5.13959 -3.17217 -1.40927
959 2 46.6889 -3.42279 -1.38654
960 2 48.392 50.2872 -1.27459
965 2 -1.50723 -1.55806 -3.57016
962 2 -3.22148 0.421254 -3.25484
1025 2 -1.53087 2.22054 -3.3177
964 2 -3.0122 -1.37723 -1.5117
967 2 -1.65361 0.522177 -1.43092
1024 2 -3.3805 2.2543 -1.48147
969 2 2.06071 -1.46778 -3.58635
966 2 0.215509 0.294528 -3.30797
968 1 0.125968 -1.47352 -1.41643
970 2 3.75363 0.464327 -3.52043
1033 1 5.80861 2.03067 -3.37295
972 1 3.91681 -1.3074 -1.55572
971 2 2.06308 0.379934 -1.54602
975 2 5.9863 0.152132 -1.49235
977 2 9.64353 -1.49974 -3.39219
976 2 7.65199 -1.41687 -1.5855
1036 2 7.67086 2.07979 -1.53125
979 2 9.57637 0.248556 -1.49951
978 2 11.3722 0.286074 -3.26527
1037 2 9.53064 2.09808 -3.28704
1040 1 11.4122 2.16968 -1.41179
983 2 13.162 0.158644 -1.30379
1041 2 13.5328 1.99262 -3.2557
982 2 15.0688 0.250842 -3.22301
1045 2 16.7764 2.23744 -3.26333
986 2 18.4915 0.144153 -3.42337
987 2 17.0585 0.291345 -1.41673
991 1 20.4134 0.131686 -1.49763
993 2 24.3736 -1.51017 -3.13426
990 1 22.3684 0.304291 -3.49834
994 2 26.206 0.158823 -3.26979
995 2 24.3853 0.309474 -1.53533
1056 2 26.2199 2.08352 -1.54135
998 1 29.8695 0.269376 -3.30659
999 2 28.1401 0.412967 -1.21803
1001 2 31.6063 -1.51439 -3.16648
1002 2 33.5115 0.393822 -3.0979
1004 1 33.4497 -1.58105 -1.41105
1003 1 31.5471 0.409004 -1.14677
1005 2 35.4997 -1.34603 -3.05306
1009 1 39.1243 -1.52362 -3.07552
1006 2 37.2067 0.475667 -3.07352
1008 2 37.225 -1.48066 -1.32002
1007 2 35.2242 0.351444 -1.15822
1011 2 39.0812 0.397269 -1.44421
1010 2 40.9607 0.475265 -3.1197
1015 1 43.0861 0.382209 -1.41787
1017 2 46.7772 -1.52024 -3.20481
1014 2 44.9496 0.268034 -3.20598
1016 2 44.9782 -1.53357 -1.37067
1019 2 46.6604 0.493296 -1.43714
961 2 -5.14275 -1.2477 -3.30602
1021 2 -5.15459 2.14767 -3.36123
1018 2 48.4975 0.439671 -3.39264
1020 2 48.4633 -1.35604 -1.44927
963 2 -4.90769 0.280448 -1.5361
1022 1 -3.28685 4.09327 -3.22446
1027 2 -1.45991 4.0095 -1.3462
1029 2 2.06781 2.21701 -3.22534
1026 2 0.236219 4.1624 -3.38388
1089 2 2.16672 5.79731 -3.3406
1028 2 0.266767 2.11496 -1.47084
1031 2 2.13268 3.98276 -1.45375
1088 2 0.374791 5.83059 -1.51293
1030 2 3.83667 4.00589 -3.34513
1032 2 3.79485 2.08721 -1.46118
1092 1 4.11072 5.71399 -1.47701
1034 2 7.60687 3.99289 -3.34718
1035 2 5.72305 3.79902 -1.59722
1096 1 7.52482 5.74523 -1.39341
1039 2 9.44419 3.92771 -1.46661
1038 2 11.5437 3.97097 -3.30966
1097 1 9.56238 5.81883 -3.32238
1101 2 13.1417 5.95567 -3.25413
1100 2 11.5019 5.78434 -1.12875
1042 2 15.0405 4.00573 -3.29059
1105 2 16.7691 5.86527 -3.2466
1044 2 15.1358 2.12982 -1.42028
1043 2 13.209 4.09904 -1.47605
1104 2 14.8983 5.73748 -1.46826
1046 2 18.703 4.04544 -3.2771
1048 2 18.4843 2.19842 -1.5111
1047 2 16.7782 4.05989 -1.33278
1049 2 20.512 2.12975 -3.4264
1050 2 22.1772 4.00207 -3.2049
1109 2 20.5135 6.07194 -3.35205
1052 2 22.437 2.19333 -1.33705
1051 2 20.5189 3.91991 -1.35077
1055 2 24.2188 4.06961 -1.51313
1053 2 24.1391 2.11846 -3.208
1057 2 28.1378 2.28757 -3.16748
1054 2 26.0603 4.10073 -3.2209
1117 2 27.9763 5.80825 -3.33615
1059 2 27.9427 4.16766 -1.41152
1058 2 29.8441 4.08062 -3.25756
1060 2 29.8471 2.29538 -1.40596
1063 2 31.6358 4.13204 -1.40532
1061 2 31.7103 2.37405 -3.12534
1065 2 35.5124 2.21913 -3.20564
1062 2 33.4866 3.98364 -3.33803
1064 2 33.4125 2.16752 -1.3624
1067 2 35.4093 3.90255 -1.27605
1069 2 39.0561 2.28025 -3.36147
1066 2 37.2627 4.09682 -3.36568
1129 2 39.1018 5.89224 -3.30121
1068 2 37.2923 2.16103 -1.21429
1071 1 39.1768 3.93961 -1.32312
1128 2 37.3467 5.74703 -1.45111
1073 2 42.8852 2.20526 -3.26982
1070 2 40.809 4.09501 -3.21989
1072 2 40.9808 2.1669 -1.34356
1075 2 42.9492 4.12012 -1.53484
1074 2 44.787 3.92624 -3.37137
1077 2 46.7805 2.27952 -3.08147
1133 2 42.865 5.94112 -3.17441
1076 2 44.8764 2.32041 -1.60948
1079 2 46.614 4.08512 -1.35147
1078 2 48.4216 4.04077 -3.38759
1081 1 -5.20299 5.97356 -3.19185
1080 1 48.5274 2.16395 -1.25128
1023 2 -5.10427 4.0404 -1.25923
1140 2 48.4548 5.82271 -1.27819
1082 2 -3.2275 7.72487 -3.2855
1085 2 -1.50594 5.89806 -3.39859
1141 2 50.1374 9.60136 -3.23506
1084 2 -3.15339 5.94256 -1.40298
1087 2 -1.36207 7.68093 -1.62552
1144 2 -3.29848 9.46533 -1.39151
1086 2 0.318991 7.62305 -3.31246
1145 2 -1.36734 9.53492 -3.10765
1148 2 0.396967 9.54941 -1.32217
1090 2 4.05121 7.52736 -3.44872
1149 1 2.25132 9.45231 -3.25933
1153 2 5.85229 9.69422 -3.22317
1091 2 2.23263 7.66098 -1.37768
1095 2 5.85721 7.78585 -1.46173
1152 2 3.95896 9.45791 -1.33062
1094 2 7.64139 7.84317 -3.20575
1157 2 9.50897 9.60176 -3.33412
1099 2 9.54912 7.42734 -1.27359
1156 1 7.70839 9.51513 -1.24938
1098 2 11.3088 7.85086 -3.13525
1103 2 13.2894 7.83119 -1.29977
1160 1 11.341 9.57073 -1.252
1102 2 14.8377 7.73889 -3.26974
1161 1 13.1753 9.66836 -3.16163
1107 1 16.687 7.61406 -1.35282
1164 2 15.0513 9.62193 -1.21924
1106 2 18.7041 7.96141 -3.31726
1108 1 18.7242 5.92872 -1.34638
1168 1 18.6443 9.53497 -1.35317
1110 2 22.4383 7.67732 -3.35435
1111 2 20.5272 7.78681 -1.27522
1112 2 22.28 5.90373 -1.46016
1113 2 24.1327 5.93224 -3.1629
1114 1 26.173 7.66188 -3.27751
1115 2 24.1668 7.8399 -1.33538