ITEM: TIMESTEP
2500
ITEM: NUMBER OF ATOMS
18000
ITEM: BOX BOUNDS pp pp pp
-5.1703326625068406e+00 5.0170332662506894e+01
-5.1703326625068406e+00 5.0170332662506894e+01
-6.8937768833425608e+00 6.6893776883342127e+01
ITEM: ATOMS id type x y z
2 2 -3.35252 -3.33356 -6.9194
64 2 -3.37784 -1.24905 -4.95936
5 2 -1.45131 50.2375 66.9282
7 2 -1.41752 -3.23198 -5.07886
6 2 0.299385 -3.11822 -6.87343
8 2 0.237379 50.0629 -5.06697
11 2 2.15146 -3.39119 -5.12465
9 2 2.15189 50.1747 66.9555
910 1 3.99737 -3.30428 -3.24729
12 2 4.07692 50.0499 -5.14552
913 2 5.90021 50.0402 -3.0916
10 2 4.21862 -3.37916 -6.84165
15 2 6.06082 -3.51821 -5.01759
76 2 7.88495 -1.62993 -5.07056
914 2 7.75652 -3.34948 -3.21684
19 1 9.69899 -3.45629 -5.00111
80 2 11.5101 -1.71065 -4.83387
23 2 13.3708 -3.46977 -5.06524
27 2 17.1569 -3.43483 -5.01155
31 2 20.4617 -3.35284 -5.21068
88 2 18.7414 -1.58189 -5.2652
28 2 18.6065 50.1214 -5.02588
30 1 22.3923 -3.24946 -7.05933
92 2 22.6197 -1.35849 -5.23479
32 2 22.2708 50.2684 -5.10541
35 2 24.3608 -3.1839 -5.14731
93 2 24.2918 -1.39896 -6.9874
36 1 26.2106 50.1346 -5.15741
39 2 28.1125 -3.22182 -5.33223
40 2 29.9519 -5.09984 -5.1351
100 2 29.8902 -1.56286 -5.29401
38 2 29.8755 -3.35335 -7.13741
43 2 31.6484 -3.29731 -5.26317
42 2 33.5973 -3.33546 66.7864
44 2 33.4676 50.2434 -5.11335
101 2 31.8594 -1.51533 66.6885
104 1 33.5018 -1.32577 -5.04325
41 2 31.7394 -5.12912 -6.97004
45 2 35.388 -5.11446 -6.92926
47 2 35.4402 -3.16464 -5.1556
46 2 37.4003 -3.34827 -6.93184
49 2 38.9276 -5.22131 -6.79712
51 2 39.0554 -3.31487 -5.1007
108 2 37.2578 -1.20541 -5.07184
55 2 42.6091 -3.27733 -5.01594
50 2 40.7611 -3.35599 -6.9366
113 2 42.8266 -1.41546 -7.06106
116 2 44.4586 -1.57037 -5.05364
59 2 46.5916 -3.25998 -5.07839
54 2 44.4778 -3.33744 -6.89522
117 2 46.2353 -1.46882 -6.80076
3 2 50.0115 -3.26937 -5.01077
58 2 48.2454 -3.38899 -6.74061
124 1 -3.33221 2.17375 -5.06933
125 2 -1.58165 2.23276 -6.83901
61 2 -5.26071 -1.54808 -6.72268
65 2 -1.39537 -1.36987 -6.8584
62 2 -3.19306 0.274895 -6.76524
68 2 0.317482 -1.3157 -5.08696
67 2 -1.40857 0.466698 -4.90983
69 2 2.36961 -1.64774 -6.72153
72 2 4.31392 -1.51363 -5.00021
71 2 2.24834 0.337817 -5.16461
973 2 6.10084 -1.5529 -3.33337
75 2 6.13164 0.313552 -4.92402
974 2 7.99016 0.302075 -3.1569
79 2 9.71019 0.143009 -5.12146
140 2 11.4503 2.05836 -4.90825
84 2 15.2032 -1.79628 -4.94261
83 2 13.33 0.0572366 -5.09943
144 2 14.938 2.14171 -5.13332
87 2 17.0158 0.0549891 -5.09014
91 2 20.5946 0.335852 -5.13409
148 1 18.851 2.10165 -4.90098
152 2 22.4102 2.09029 -5.0956
95 2 24.1846 0.569955 -5.32475
96 2 26.1666 -1.25881 -5.19578
94 2 26.1595 0.336696 66.6117
156 1 26.067 2.07943 -5.06055
99 2 28.1367 0.397442 -5.24228
160 2 29.8629 2.31183 -5.16771
103 2 31.6966 0.646984 -5.14551
165 2 35.3565 2.24202 66.8745
109 2 38.9913 -1.37422 -6.91905
107 2 35.3753 0.511798 -4.9144
106 2 37.2438 0.502535 -6.96499
111 2 39.075 0.60702 -5.15768
112 2 40.8494 -1.36886 -5.219
115 1 42.6916 0.414699 -5.06182
119 2 46.4448 0.259056 -5.13604
114 2 44.5787 0.39635 -6.82096
177 2 46.4779 2.16624 -6.89935
120 2 48.2451 -1.57137 -5.14835
63 2 50.0291 0.401039 -5.21831
118 2 48.2303 0.346509 -6.68264
122 2 -3.29498 4.22267 -6.87654
127 2 -1.44138 4.21758 -5.1495
185 2 -1.34468 6.05819 -6.89192
128 1 0.493731 2.3958 -5.05252
132 2 4.01996 2.42221 -5.11133
131 2 2.33669 4.15792 -4.93748
135 2 6.06487 3.98774 -5.23311
192 2 4.26344 5.76564 -5.1851
1093 2 5.85063 5.88735 -3.44438
136 2 8.00714 2.22801 -4.95174
196 2 7.80356 5.99625 -5.20979
139 2 9.9038 3.86 -5.23991
197 2 9.64953 5.86327 -6.87156
200 2 11.522 5.94349 -5.29166
138 2 11.5468 4.01427 -7.04312
143 2 13.2 3.98118 -5.01303
147 1 16.9282 4.00652 -5.06945
141 2 13.1662 2.03583 -6.83104
208 2 18.7471 5.87604 -5.00419
155 1 24.2571 3.97564 -5.0617
151 2 20.5931 3.93191 -5.0761
212 2 22.2953 5.79536 -4.95186
216 2 26.281 5.92821 -5.34756
158 2 30.0391 4.03374 66.8303
159 2 27.9557 4.04518 -5.11332
220 2 29.8218 5.85827 -5.18826
163 2 31.7012 4.18903 -5.1452
164 2 33.6082 2.18243 -5.03057
167 2 35.33 4.04438 -5.02564
162 2 33.6377 4.16287 66.8346
168 2 37.2277 2.38311 -5.18838
169 2 39.017 2.34537 -6.94609
171 2 39.2125 4.25068 -5.21792
166 2 37.3777 4.2144 66.8783
229 2 39.0572 6.15385 -6.8875
172 2 40.9345 2.42045 -5.21583
170 2 41.1173 4.40836 -7.05626
175 1 42.9534 4.16767 -5.13473
232 2 40.9663 6.03923 -5.11338
233 2 43.0247 6.03292 -6.90248
176 2 44.7415 2.22637 -5.08275
179 2 46.5277 4.07924 -5.02307
174 2 44.7673 4.19632 66.7619
180 2 48.2185 2.21333 -4.8862
123 2 -5.26568 4.03922 -5.00673
182 2 -3.23698 7.6768 -6.84882
184 2 -3.289 5.877 -4.90524
187 2 -1.45483 7.80896 -4.95948
183 2 -5.01718 7.77884 -4.85447
188 2 0.405456 6.04177 -4.92728
248 2 0.416327 9.68548 -4.95598
186 2 0.366332 7.8098 -6.74824
191 2 2.28602 7.70067 -5.06825
252 2 4.0528 9.64209 -5.11073
195 2 5.84628 7.77122 -5.10014
256 2 7.86761 9.64971 -5.10649
199 2 9.57855 7.75354 -5.16221
203 2 13.3661 7.76892 -5.1155
260 2 11.4331 9.72377 -5.15268
204 1 15.0373 5.97025 -5.08962
264 2 15.2348 9.43842 -5.14099
207 2 17.0046 7.74566 -5.00502
206 2 18.6907 7.77234 -6.64703
265 2 17.063 9.6874 -6.75826
1165 2 16.6315 9.69323 -3.07092
211 2 20.8098 7.57684 -4.97605
1169 1 20.6599 9.53459 -3.10696
210 2 22.4583 7.72225 -6.83823
215 2 24.2387 7.35222 -5.19142
217 2 28.2373 5.93895 -7.21804
219 2 28.1055 7.62817 -5.3994
223 2 31.536 7.58683 -5.09253
280 2 29.7499 9.32231 -5.22879
224 2 33.4288 5.86107 -5.10263
225 2 35.4125 5.93252 66.9605
227 2 35.3789 7.55802 -4.92535
284 1 33.4854 9.4132 -5.06486
228 2 37.1771 5.78703 -4.98696
231 2 39.1601 7.81334 -4.93341
288 2 37.3833 9.40114 -4.70124
1189 2 39.1397 9.68744 -3.01627
289 2 38.9911 9.69984 -6.7089
292 2 41.0086 9.53706 -4.85109
235 2 42.9377 7.74529 -5.05123
236 2 44.7876 5.9647 -5.05164
293 2 42.9223 9.79601 -6.75571
296 2 44.6608 9.46798 -4.98587
239 2 46.6844 7.78593 -4.9586
240 2 48.3964 5.85405 -4.93236
300 2 48.3594 9.49665 -4.94662
1197 2 46.5966 9.46893 -3.07442
244 2 -3.32728 9.59642 -4.90956
304 2 -3.41991 13.4326 -4.83941
243 2 50.1486 11.5143 -4.87708
247 2 -1.61947 11.5044 -4.95912
251 2 2.28977 11.6053 -4.84838
308 2 0.289396 13.4168 -4.98747
312 2 4.07676 13.6001 -5.16508
255 1 5.84202 11.5741 -5.05274
259 2 9.58327 11.4982 -4.92983
316 2 7.92644 13.283 -5.07477
320 1 11.52 13.1544 -5.04469
263 2 13.4137 11.3601 -5.15227
267 2 17.0644 11.6099 -4.9255
324 2 15.2272 13.413 -4.94658
266 2 18.7039 11.4835 67.0437
268 2 18.6497 9.63068 -4.72113
271 2 20.6693 11.6278 -4.84773
328 2 18.7173 13.4008 -4.78117
329 2 20.4904 13.4664 67.015
269 2 20.5534 9.50463 -6.69488
270 2 22.3984 11.3371 -6.74447
272 2 22.5539 9.44961 -4.93904
1170 2 22.5525 11.3889 -3.33251
275 2 24.2761 11.2355 -5.13322
276 2 26.0495 9.46657 -5.17952
336 2 26.2299 13.2389 -5.00266
279 2 28.1378 11.2635 -5.1211
340 2 29.8612 13.1009 -5.11404
283 2 31.6704 11.2169 -5.10039
287 1 35.4533 11.1518 -4.94117
344 2 33.3682 13.1262 -5.00866
345 2 35.3541 13.1832 67.0269
291 2 39.0291 11.3316 -4.87852
348 2 37.1636 13.1494 -4.88419
286 2 37.2121 11.2915 66.9874
349 1 38.9898 13.1954 -6.75473
352 2 41.0889 13.1347 -4.73671
290 1 40.9732 11.4851 -6.77913
295 2 42.8728 11.3127 -4.83481
356 2 44.8604 13.1372 -4.87447
299 2 46.584 11.2652 -4.89296
360 2 48.3969 13.3228 -5.00176
303 2 50.2057 15.1877 -4.89311
364 2 -3.54063 17.2484 -4.74737
307 2 -1.80888 15.4021 -4.88741
368 1 0.273127 17.0891 -5.01814
311 2 2.14157 15.1622 -5.09545
372 2 4.02105 17.1217 -5.02297
315 2 5.97725 15.2207 -5.06619
376 2 7.6964 16.9943 -4.91486
1273 2 5.78896 16.8688 -3.18631
319 2 9.71446 15.1746 -4.946
380 2 11.4926 16.9216 -4.9688
1277 2 9.4404 16.9352 -3.23115
323 1 13.363 15.1777 -5.04086
327 2 17.0069 15.1552 -4.93426
384 2 15.1729 17.2105 -5.09522
385 2 16.9507 16.9936 -6.99637
331 2 20.5492 15.1895 -4.99915
326 2 18.7409 15.0173 67.0003
332 2 22.4383 13.4018 -4.96688
335 2 24.3078 15.2045 -5.09888
330 2 22.2557 15.2569 67.0661
334 1 26.2788 15.0681 -6.98845
1234 2 26.1375 15.025 -3.22865
1233 2 24.2484 13.2088 -3.28153
339 2 28.1664 15.0005 -5.17166
343 2 31.7646 15.0912 -5.17952
347 2 35.493 14.9906 -4.90906
405 2 35.4024 16.6999 66.9772
351 2 39.0671 15.0147 -4.94122
408 2 37.2694 16.869 -5.00605
409 2 38.9709 16.8704 66.9611
412 1 40.9708 16.9913 -4.94745
350 1 41.0593 14.9819 67.0633
355 1 43.0212 15.1236 -4.78378
416 2 44.8451 16.9946 -5.00053
417 2 46.2966 17.0876 66.9164
358 2 48.2801 15.3093 67.061
359 2 46.6122 15.0356 -5.02186
420 2 48.3539 16.9797 -4.95898
363 2 -5.23714 18.8656 -4.82973
367 1 -1.51158 18.9234 -4.93911
1321 2 50.2167 20.6339 -3.09138
428 2 0.443583 20.8549 -4.8915
1329 2 2.27785 20.818 -3.22445
371 2 2.16442 18.9749 -5.10398
432 2 4.08832 20.7977 -5.06385
1270 2 4.03628 18.8269 -3.35033
375 2 6.05933 18.7178 -4.8995
436 2 7.71525 20.9613 -4.98083
1274 2 7.62546 19.0018 -3.18129
1333 2 5.93171 20.7604 -3.18328
1337 2 9.40241 21.0575 -2.97116
379 1 9.67621 19.0031 -4.74733
1278 2 11.5981 18.81 -3.11597
383 2 13.3014 18.9176 -5.07693
382 2 15.0582 18.9314 66.9421
387 2 16.8309 19.0641 -5.13241
388 2 18.6734 17.0355 -5.04519
389 2 20.5679 17.013 -6.79403
391 2 20.6707 18.9704 -4.95072
386 2 18.67 18.9755 -6.73683
392 2 22.3695 17.1742 -4.908
395 2 24.2124 19.1276 -4.91245
393 2 24.2498 16.9214 66.9518
396 2 26.033 16.8659 -5.12852
394 1 26.1799 18.8749 67.0739
1294 2 26.1876 18.9511 -3.47262
397 1 28.0981 16.9954 66.9051
400 2 29.8996 16.8413 -5.08307
1297 1 28.0087 17.033 -3.45787
399 2 28.2697 19.0088 -5.17456
404 2 33.51 16.7997 -5.03236
403 2 31.8203 18.6614 -5.09056
407 2 35.5659 18.6369 -5.06627
1365 2 35.4903 20.4607 -3.17368
468 2 37.0653 20.556 -5.01106
411 2 38.906 18.6827 -5.00579
472 1 40.7741 20.3899 -5.11573
410 2 40.8894 18.5879 66.7958
415 2 42.9151 18.788 -5.03585
419 2 46.5259 18.8558 -5.01047
477 2 46.44 20.5772 66.8159
418 1 48.3858 18.8583 66.8957
480 2 48.4012 20.7145 -5.05128
424 2 -3.40658 20.7096 -4.88226
1322 2 -3.29303 22.6073 -3.07133
484 2 -3.17936 24.1665 -4.98747
1381 2 50.2119 24.2874 -3.12125
427 2 -1.39871 22.4811 -4.83898
431 2 2.14808 22.6216 -5.09656
488 2 0.4266 24.3537 -4.8723
430 2 3.81993 22.5906 -6.68928
492 2 3.8629 24.4554 -4.86689
493 2 5.70754 24.6192 67.1372
435 2 5.72865 22.7694 -4.96729
496 2 7.58163 24.519 -4.89476
440 2 11.3574 21.0411 -4.88592
1341 2 13.0964 20.6647 -3.14676
443 2 13.1603 22.7661 -5.03695
439 2 9.53366 22.7824 -4.85766
444 2 15.024 20.9133 -4.96496
447 2 16.8429 22.7692 -5.05633
445 2 16.7817 20.8309 66.9285
448 1 18.758 20.9081 -4.90023
451 2 20.6429 22.6952 -4.95066
446 2 18.822 22.6323 -6.87148
452 2 22.4342 20.8547 -4.84869
453 2 24.3858 20.6795 -6.93216
455 2 24.3056 22.6408 -5.01658
456 2 26.2199 20.9003 -5.06897
1353 2 24.5031 20.9397 -3.26016
1354 2 26.2827 22.7765 -3.34647
460 2 29.9572 20.8319 -5.13738
1357 2 28.2165 20.6988 -3.49177
459 2 28.1451 22.6582 -5.12517
1358 2 30.0056 22.6912 -3.27157
461 2 31.8645 20.683 -7.00899
463 2 31.946 22.5199 -5.08218
464 2 33.8856 20.6456 -5.16013
521 2 31.9285 24.2792 -6.78129
524 2 33.8735 24.2611 -5.13024
467 2 35.6084 22.47 -5.12619
528 2 37.4138 24.1893 -5.1089
471 2 39.1164 22.4182 -5.26417
475 2 42.6339 22.2332 -5.17085
476 2 44.6366 20.5569 -5.06451
474 1 44.49 22.3369 66.7138
423 2 -5.21555 22.5326 -4.94844
479 2 46.487 22.2923 -5.07079
540 2 48.2932 24.0695 -5.0331
483 2 -5.14788 25.8933 -5.0895
541 1 -5.20635 27.9852 66.7438
487 1 -1.51716 26.2255 -5.12976
491 2 2.1547 26.2101 -4.99316
490 2 3.77634 26.4547 -6.78257
495 2 5.79845 26.4268 -4.93724
499 2 9.56695 26.3952 -4.79863
500 2 11.3522 24.5631 -4.93043
503 2 13.1786 26.2752 -4.88913
560 2 11.4446 28.147 -4.88809
504 2 14.9528 24.4857 -5.0632
507 2 16.879 26.1491 -4.9299
564 1 14.9313 28.0441 -4.84911
565 1 16.8558 27.9291 66.8806
508 2 18.6859 24.4148 -5.01818
511 2 20.6944 26.1848 -4.98715
506 2 18.9024 26.1984 66.9317
509 2 20.6055 24.4038 66.9763
512 2 22.6477 24.3926 -5.13859
515 2 24.31 26.349 -5.08923
510 2 22.3641 26.0633 66.9802
516 2 26.2568 24.4888 -5.1638
576 2 26.3624 28.0229 -5.12499
519 2 28.0914 26.2596 -5.14962
520 2 30.0295 24.444 -5.06433
580 2 30.0238 27.9042 -5.10493
523 2 32.0752 26.0639 -5.15947
584 1 33.9226 28.0119 -5.14846
527 2 35.732 26.2394 -4.9521
531 1 39.0258 26.1381 -4.83329
588 2 37.4543 28.116 -4.89281
532 2 40.8306 24.242 -4.85863
535 2 42.666 26.2386 -5.08177
536 1 44.472 24.2366 -5.18915
537 2 46.3271 24.1814 66.6664
539 2 46.4296 26.0256 -5.08604
596 2 44.5141 27.7579 -5.0496
533 1 42.4875 24.2438 66.7851
534 2 44.3921 26.0865 66.6563
600 1 48.318 27.7513 -5.15264
538 1 48.2759 25.8858 66.801
543 2 -5.2434 29.6772 -4.87346
544 2 -3.30066 28.0392 -5.08961
547 2 -1.48086 29.8238 -5.08711
548 2 0.434379 28.0838 -5.09768
1446 2 0.29004 29.7027 -3.1815
551 2 2.15528 29.7305 -5.08094
552 2 4.01052 28.2263 -4.87793
555 2 5.91996 29.7729 -4.9603
556 2 7.76973 28.1814 -4.84581
559 2 9.59642 29.8859 -4.77795
558 2 11.367 29.8187 67.0785
563 2 13.2394 30.2258 -4.86937
620 2 11.4614 31.8818 -4.74433
567 1 16.8807 29.8659 -5.04047
624 2 15.0063 31.9097 -4.87019
625 2 16.8888 31.7529 66.9088
568 1 18.8519 28.0094 -4.89716
569 2 20.6146 28.0427 -6.95395
628 2 18.8751 31.6638 -4.81985
571 2 20.6653 29.8815 -4.96033
1470 2 22.4504 29.8499 -3.25896
570 2 22.4038 30.0396 -6.82302
572 2 22.4166 27.9502 -5.14913
575 2 24.2305 29.8831 -5.06699
574 2 26.0271 29.903 67.0186
636 2 26.1588 31.6551 -5.1996
637 2 28.0414 31.6483 66.6739
578 1 30.0281 29.7295 66.7241
579 1 28.1825 29.9771 -5.24624
640 2 30.1566 31.7146 -5.14428
583 1 32.0072 29.8073 -5.20809
644 2 34.0072 31.763 -5.09338
641 2 32.0528 31.714 66.8057
587 2 35.6611 29.9661 -4.97379
591 2 39.3197 30.0315 -4.80512
586 2 37.4006 30.0136 67.0684
590 2 41.0287 30.0216 66.9489
592 2 40.9034 28.0578 -5.09182
649 2 39.0989 31.7423 66.9793
593 2 42.7585 28.0841 66.8285
594 2 44.608 29.7281 -6.97811
595 2 42.8257 29.8631 -5.05743
597 2 46.3675 27.8635 -6.92959
599 1 46.3286 29.7313 -5.01096
657 2 46.4943 31.6605 -6.94757
660 2 48.3357 31.7118 -5.03564
598 1 48.2237 29.9413 -6.953
602 2 -3.38859 33.3957 66.9481
604 2 -3.2869 31.5134 -4.98466
601 2 -5.14132 31.4876 -6.85004
608 2 0.306879 31.7986 -5.15237
607 2 -1.51461 33.4426 -5.05014
611 2 2.03195 33.5579 -4.9435
612 1 4.07987 31.605 -4.8716
615 2 5.87266 33.5788 -4.68706
610 2 4.08651 33.5658 -6.69674
616 2 7.61052 31.6747 -4.90286
619 2 9.58387 33.6973 -4.79456
623 2 13.2327 33.7745 -4.89926
627 2 16.7742 33.5308 -4.98964
1522 2 15.1476 33.792 -3.0143
1585 2 17.083 35.4135 -3.15016
685 2 16.9828 35.388 -6.84987
631 2 20.6122 33.5242 -4.99045
688 2 18.8189 35.3524 -4.95987
626 2 18.6414 33.5308 -6.74717
689 2 20.6395 35.3469 66.9553
629 2 20.5664 31.7563 66.893
632 2 22.4914 31.6404 -4.99561
633 2 24.2872 31.6618 66.9263
635 2 24.2114 33.4796 -5.15904
692 2 22.4445 35.2582 -5.04619
630 2 22.4482 33.3037 -6.88876
693 2 24.1541 35.2193 66.8193
634 2 26.1154 33.4688 -6.94333
696 2 26.1558 35.1817 -5.2416
639 2 28.0523 33.1843 -5.20981
697 1 28.119 35.2551 66.7083
700 1 29.8975 35.4002 -5.03889
701 2 31.8684 35.5275 66.8534
638 1 30.1615 33.4688 66.8686
642 2 33.9567 33.5907 66.837
643 2 32.0979 33.5597 -5.25094
645 2 35.7001 31.7233 66.9092
648 2 37.4798 31.788 -4.88769
647 2 35.7855 33.6658 -4.99683
651 2 39.1864 33.655 -5.13375
646 2 37.3942 33.5563 66.8708
652 2 40.9721 31.7019 -4.99996
650 2 41.0423 33.5625 -6.71385
653 2 42.9073 31.805 -6.89234
656 2 44.6474 31.6456 -5.00998
654 2 44.743 33.5773 -6.76706
655 2 42.9773 33.4202 -5.06967
603 2 -5.03635 33.3892 -5.0245
658 2 48.364 33.4442 -6.77016
659 2 46.5251 33.5703 -4.94883
717 2 46.6649 35.2529 -6.88741
664 2 -3.28315 35.4268 -5.36243
665 2 -1.46349 35.2875 -6.91893
662 2 -3.34963 37.188 66.8742
667 2 -1.56478 37.2591 -5.23799
668 2 0.244391 35.2865 -4.98675
669 2 2.10687 35.2896 -6.84811
1569 2 2.05031 35.5128 -3.12865
671 2 2.03875 37.2313 -5.08091
672 2 3.86834 35.5432 -5.05376
675 2 5.86907 37.1556 -5.14547
676 2 7.82149 35.5225 -4.82919
674 2 7.69154 37.1906 -6.87661
1574 2 7.69929 37.4196 -3.06426
680 2 11.3604 35.6138 -4.88657
679 2 9.59992 37.3377 -4.97171
683 2 13.2351 37.2099 -5.10008
684 2 15.0802 35.5036 -5.00783
687 2 17.0754 37.2884 -4.93978
682 2 15.1695 37.3546 -6.71656
691 1 20.6192 37.2335 -5.05826
748 2 18.7413 39.06 -5.31011
686 2 18.8206 37.2206 66.8237
749 2 20.759 39.0733 -7.15984
752 2 22.3842 39.0628 -5.15822
695 1 24.2141 37.2667 -5.14647
690 2 22.4643 37.1598 -7.00757
694 1 26.14 37.0968 -7.04221
699 1 27.8719 37.2401 -4.99099
698 2 29.8794 37.3247 66.9536
703 2 31.7491 37.3551 -5.03263
757 2 27.9359 39.0357 66.9803
704 2 33.8714 35.3698 -5.10811
702 2 33.6258 37.2701 66.9732
707 2 35.5207 37.2861 -5.06245
1602 2 33.7165 37.2002 -3.27822
705 2 35.6492 35.4808 66.6867
708 2 37.4914 35.3302 -5.04581
709 2 39.1697 35.3735 66.8257
712 2 41.1149 35.3348 -5.00238
711 2 39.4071 37.2879 -5.07919
710 2 41.1297 37.0961 -6.79052
713 2 42.8693 35.2651 -6.7151
716 2 44.7196 35.443 -4.91588
715 2 42.8768 37.2574 -5.04403
714 1 44.7862 37.1988 -6.8561
661 2 50.0721 35.332 -6.74331
720 2 48.328 35.4626 -5.01114
663 2 -5.22434 37.1976 -5.12997
718 2 48.4214 37.3641 -6.87702
719 2 46.6091 37.2498 -5.01318
724 2 -3.33955 39.1611 -5.05464
723 2 -5.30607 40.9946 -5.09033
728 2 0.222646 39.0494 -4.96235
1629 2 2.16929 38.9155 -3.12787
727 2 -1.66166 40.8322 -5.06532
731 2 2.0646 40.6817 -5.05456
788 2 0.16032 42.7625 -4.97342
732 2 4.00471 38.8111 -5.24793
735 2 5.88566 40.9077 -5.07416
736 2 7.65177 39.0247 -5.10961
734 2 7.72089 40.9223 -6.93395
1634 2 7.81666 41.012 -3.29846
740 2 11.5189 39.2195 -5.03741
739 2 9.57303 40.9562 -4.97091
743 2 13.2283 41.0037 -4.92459
737 2 9.59832 39.2196 -6.88461
738 2 11.4654 41.033 -6.68277
741 2 13.251 39.0767 -6.80478
744 2 15.1914 39.1232 -5.03704
745 2 16.7998 39.0592 -6.93963
747 2 17.0163 40.9175 -5.03338
742 2 14.9329 40.9207 67.0896
805 2 16.996 42.7266 -6.82724
751 2 20.7052 40.8008 -5.14035
808 2 18.8842 42.6158 -4.97992
746 2 18.7504 40.9728 -6.94371
755 2 24.275 41.0079 -5.00467
753 2 24.0961 39.1168 66.7605
809 2 20.6688 42.6048 -6.88837
750 2 22.5447 40.9891 -6.80256
756 2 26.047 39.0827 -5.07413
754 1 25.9644 40.9152 66.8282
760 2 29.7961 39.208 -4.93191
759 2 27.959 40.9517 -4.95317
763 2 31.8088 40.9301 -5.04516
758 2 29.8357 40.8401 67.1027
761 2 31.8696 39.1125 66.9635
764 2 33.6053 38.9649 -5.01004
767 2 35.4342 40.8425 -5.0774
825 2 35.3233 42.6711 66.9721
765 2 35.3769 39.1494 -6.91831
762 2 33.5047 40.996 66.9487
768 2 37.3769 39.0431 -5.06265
828 1 37.2864 42.691 -5.12549
772 2 41.2022 39.1564 -5.09663
771 2 39.4353 40.8293 -5.12217
829 1 39.2624 42.8196 -6.85008
832 2 41.1955 42.8815 -5.01458
769 2 39.3187 39.1179 66.9156
770 2 41.2045 41.0693 66.9608
776 2 44.8573 39.1369 -5.10745
775 2 42.8483 41.021 -4.92695
773 2 42.8813 39.0771 -6.91538
774 2 44.6674 41.0581 67.0366
780 1 48.416 39.1385 -5.02205
779 2 46.6015 41.0537 -5.00656
777 2 46.6908 39.2024 66.8164
784 2 -3.21469 42.8606 -5.09535
787 2 -1.50522 44.8016 -5.02299
786 2 0.0990248 44.7122 66.8527
791 1 2.11419 44.647 -5.16193
792 2 4.07077 42.7086 -5.14499
795 2 5.74528 44.4133 -5.17129
852 2 4.01065 46.3863 -5.01086
793 2 5.70797 42.6264 -7.01653
794 2 7.74826 44.8035 -6.76022
796 2 7.60463 42.8438 -5.05733
1693 2 5.91944 42.7414 -3.18453
799 2 9.4635 44.747 -4.94892
800 2 11.4297 42.7982 -4.92879
803 2 13.3615 44.5505 -4.88232
804 2 15.383 42.8637 -4.91398
802 2 15.1673 44.548 -6.89117
807 2 17.1084 44.5221 -4.88189
806 1 18.9058 44.3921 -6.9492
811 2 20.5832 44.6281 -4.9774
810 2 22.3806 44.5931 66.7789
812 2 22.4309 42.8927 -4.99118
815 2 24.2857 44.6237 -5.03818
813 2 24.1748 42.8696 66.5745
816 1 26.1304 42.8529 -5.16398
814 2 26.0389 44.7113 66.7196
817 1 28.1241 42.7158 66.8507
818 2 29.826 44.8325 66.929
819 2 27.9542 44.667 -5.10723
820 2 29.8923 42.8565 -5.03218
880 2 29.8327 46.495 -4.90093
821 1 31.5766 42.8523 66.9191
823 2 31.6437 44.828 -5.11048
824 2 33.6476 42.6333 -5.02605
822 2 33.5011 44.5735 66.9812
827 2 35.4665 44.6022 -5.13891
826 2 37.2312 44.5494 66.6943
885 2 35.4234 46.3255 66.7045
888 2 37.1687 46.3157 -5.25259
831 2 39.2794 44.5877 -5.14306
889 2 39.1304 46.3106 -6.84591
892 2 40.9899 46.6087 -4.88683
830 2 41.1203 44.6157 66.9567
893 1 42.8093 46.5388 66.8971
835 2 42.9096 44.6813 -4.96911
836 2 44.7026 42.9474 -5.05502
839 2 46.5763 44.7202 -4.94786
896 2 44.6038 46.49 -4.84372
833 2 43.0106 42.8684 66.9019
834 2 44.8133 44.7039 66.8474
783 2 -5.18764 44.9003 -4.93873
838 2 48.2427 44.787 66.8762
840 2 48.3591 42.9284 -4.8238
900 2 48.3511 46.5481 -4.96542
781 1 49.951 42.8188 66.8892
4 2 -3.22817 49.9408 -5.02469
841 2 -5.29041 46.6359 -6.96907
842 2 -3.43894 48.3185 -6.88175
844 2 -3.32909 46.6248 -5.0261
845 2 -1.5119 46.6929 66.8165
847 2 -1.48439 48.2624 -5.02058
909 2 1.99108 50.0762 -3.2442
848 2 0.217668 46.5699 -5.30515
851 2 2.0776 48.2885 -5.21897
846 2 0.373938 48.3144 66.6282
855 2 5.77719 48.1875 -5.13681
16 2 7.74353 50.0617 -5.01888
856 2 7.59228 46.5312 -5.08283
859 2 9.66441 48.4839 -5.07025
20 2 11.5667 50.0891 -5.111
860 2 11.5217 46.5113 -5.14723
24 2 15.4162 49.9487 -5.07509
863 2 13.5534 48.1918 -5.08388
864 2 15.2349 46.1819 -5.03469
867 2 16.9411 48.1657 -4.96145
29 2 20.4727 50.0503 -6.82891
868 2 18.7119 46.4888 -5.12585
871 2 20.4098 48.2435 -4.98321
869 1 20.5907 46.3279 66.6985
870 2 22.1755 48.3747 -6.84822
872 2 22.4103 46.4413 -4.97071
873 1 24.0438 46.6086 66.7709
874 2 26.2263 48.3683 66.7746
875 2 24.1008 48.4352 -5.04266
876 1 25.9901 46.5109 -5.07707
877 2 27.9305 46.5749 67.0571
878 1 29.9617 48.4335 66.8486
879 2 28.0429 48.4587 -5.0851
883 2 31.7463 48.3177 -4.99433
884 2 33.5998 46.5027 -5.19947
881 2 31.6013 46.4138 66.7948
882 1 33.5946 48.3182 66.7719
48 2 37.1526 50.1556 -5.12641
887 2 35.3594 48.3483 -5.13203
886 1 37.1149 48.278 -6.9369
52 2 40.795 -5.11496 -5.10212
891 2 39.1054 48.343 -4.9882
890 2 40.7745 48.3883 -6.76681
53 2 42.6295 50.1541 -6.80628
895 2 42.5702 48.372 -4.87616
56 1 44.4733 50.1824 -4.9781
894 2 44.6615 48.3862 -6.74953
57 2 46.4604 50.1501 -6.73155
897 2 46.3746 46.5395 -6.6259
899 2 46.3826 48.3403 -4.8566
1 1 -5.30553 50.0869 -6.92742
843 2 -5.0844 48.3029 -4.9954
60 2 48.3073 50.1646 -4.93912
898 2 48.1551 48.3205 -6.83069
902 1 -3.25035 -3.25171 -3.27997
905 2 -1.32811 49.9292 -3.14904
904 2 -3.22987 50.2719 -1.28881
907 2 -1.42754 -3.31418 -1.19848
906 2 0.192731 -3.37649 -3.21392
908 2 0.485386 50.2298 -1.45317
911 2 2.14314 -3.28963 -1.36064
915 1 5.89753 -3.40704 -1.28491
912 2 3.85592 50.0207 -1.46735
919 2 9.57335 -3.46825 -1.33223
918 2 11.4382 -3.61164 -2.97293
920 2 11.4641 50.1045 -1.12895
980 2 11.4747 -1.55867 -1.19855
923 2 13.3115 -3.41891 -1.25338
922 2 15.2005 -3.52626 -3.10626
981 2 13.2397 -1.70364 -3.06227
984 2 15.0445 -1.59859 -1.50225
985 2 17.0235 -1.65339 -2.97468
926 2 18.7035 -3.37676 -3.10686
989 1 20.5438 -1.53027 -3.30123
929 2 20.481 50.2182 -3.22995
927 2 17.0143 -3.32444 -1.23602
931 2 20.5747 -3.37552 -1.43166
988 2 18.8431 -1.59428 -1.18138
928 2 18.8173 50.1761 -1.34012
930 2 22.486 -3.38376 -3.32443
992 2 22.5556 -1.5638 -1.4472
932 2 22.3906 50.1543 -1.36178
934 2 26.208 -3.253 -3.44532
933 2 24.083 50.1587 -3.3416
935 1 24.3215 -3.27351 -1.49297
996 2 26.2256 -1.52415 -1.30564
936 1 26.073 50.1367 -1.57952
938 2 29.8828 -3.2712 -3.45804
997 2 27.986 -1.55723 -3.4588
937 2 28.129 -5.07126 -3.43309
939 2 28.0468 -3.38858 -1.55215
940 2 29.9666 -5.12284 -1.37686
1000 2 29.6924 -1.45094 -1.41869
941 2 31.6894 50.3796 -3.20337
942 2 33.6465 -3.33892 -3.3221
945 2 35.2554 50.1715 -3.43481
943 2 31.679 -3.14487 -1.38808
947 2 35.4924 -3.32472 -1.39536
944 2 33.6642 50.2142 -1.49392
946 2 37.2991 -3.31028 -3.28819
951 2 39.1102 -3.255 -1.56421
950 2 41.0372 -3.21347 -3.20265
953 2 42.5539 50.3172 -3.15568
1013 2 42.7637 -1.46375 -3.15614
952 2 40.7568 50.1583 -1.4258
955 2 42.6489 -3.06409 -1.32394
1012 2 40.8019 -1.41185 -1.48448
954 2 44.4853 -3.12329 -3.15083
957 2 46.4151 50.4207 -3.14144
956 2 44.5654 50.3054 -1.36204
901 2 -5.02349 50.2217 -3.28544
958 2 48.3679 -3.09866 -3.16026
903 1 -5.17352 -3.2247 -1.35315
959 2 46.5283 -3.20005 -1.40205
960 2 48.3166 50.2316 -1.28071
965 2 -1.43861 -1.36852 -3.37426
962 2 -3.30534 0.491487 -3.05806
1025 2 -1.3566 2.26373 -3.29318
964 2 -3.27935 -1.37518 -1.47599
967 2 -1.39322 0.482786 -1.49872
1024 2 -3.35361 2.14901 -1.28603
969 2 2.26457 -1.4779 -3.3569
966 2 0.484779 0.405361 -3.2606
968 1 0.249123 -1.33565 -1.45153
970 2 4.0511 0.375468 -3.41135
1033 1 5.93347 2.29893 -3.31963
972 1 4.18203 -1.36726 -1.46583
971 2 2.24267 0.431045 -1.60756
975 2 6.12948 0.424472 -1.23042
977 2 9.63243 -1.63696 -3.06896
976 2 7.82941 -1.43421 -1.16223
1036 2 7.87541 2.30414 -1.52859
979 2 9.64997 0.340799 -1.30377
978 2 11.3507 0.108282 -3.30217
1037 2 9.61928 2.14158 -3.22631
1040 1 11.5674 2.12644 -1.29754
983 2 13.2834 0.191444 -1.54608
1041 2 13.2792 1.99169 -3.27015
982 2 15.0901 0.197997 -3.22746
1045 2 16.8046 2.14827 -3.0425
986 2 18.7487 0.294486 -3.24559
987 2 16.711 0.295435 -1.35814
991 1 20.5012 0.384644 -1.13391
993 2 24.3904 -1.28614 -3.46153
990 1 22.4347 0.358028 -3.12461
994 2 26.3059 0.246726 -3.12998
995 2 24.6376 0.103599 -1.43738
1056 2 26.3351 2.09478 -1.52378
998 1 29.916 0.325084 -3.34084
999 2 28.0756 0.467523 -1.42588
1001 2 31.6525 -1.54617 -3.2921
1002 2 33.5335 0.44575 -3.28808
1004 1 33.6005 -1.38354 -1.49868
1003 1 31.5895 0.419285 -1.48392
1005 2 35.6497 -1.4439 -3.19612
1009 1 39.1505 -1.42955 -3.35471
1006 2 37.3028 0.688423 -3.10884
1008 2 37.3182 -1.36286 -1.49542
1007 2 35.2943 0.497168 -1.35685
1011 2 39.204 0.536996 -1.34581
1010 2 40.799 0.536716 -3.26456
1015 1 42.696 0.463161 -1.49454
1017 2 46.4353 -1.44077 -3.26016
1014 2 44.7222 0.456458 -3.22012
1016 2 44.5628 -1.34708 -1.34262
1019 2 46.3747 0.391462 -1.2505
961 2 -5.27423 -1.26954 -3.23798
1021 2 -5.29071 2.04092 -3.31976
1018 2 48.1389 0.306766 -3.08908
1020 2 48.2895 -1.36753 -1.33601
963 2 -5.19514 0.489637 -1.33096
1022 1 -3.26005 4.03094 -3.15021
1027 2 -1.41734 4.04465 -1.43772
1029 2 2.42133 2.27681 -3.25519
1026 2 0.50158 4.16624 -3.18381
1089 2 2.1547 6.07649 -3.13278
1028 2 0.456987 2.23489 -1.52321
1031 2 2.21605 3.99999 -1.29664
1088 2 0.3399 5.83945 -1.234
1030 2 4.12779 4.19759 -3.17734
1032 2 4.08542 2.22624 -1.32487
1092 1 4.02236 5.81771 -1.36645
1034 2 7.81959 4.14738 -3.44674
1035 2 5.9885 3.91334 -1.40404
1096 1 7.86137 5.85814 -1.48464
1039 2 9.70194 3.9283 -1.52725
1038 2 11.5217 4.00625 -3.27665
1097 1 9.73832 5.86638 -3.3952
1101 2 13.073 5.86556 -3.24627
1100 2 11.5091 5.87147 -1.1985
1042 2 14.8925 3.91413 -3.20359
1105 2 16.7168 5.90604 -3.22332
1044 2 14.9467 2.12771 -1.40626
1043 2 13.3088 4.10873 -1.31485
1104 2 15.0142 5.97292 -1.34243
1046 2 18.582 3.94659 -3.14843
1048 2 18.5727 1.98081 -1.25594
1047 2 16.7406 3.99677 -1.31063
1049 2 20.5509 2.20451 -2.9739
1050 2 22.3167 3.88548 -3.15354
1109 2 20.5655 5.76321 -3.1278
1052 2 22.4705 2.29944 -1.2497
1051 2 20.6042 4.12886 -1.21947
1055 2 24.4535 3.95404 -1.39732
1053 2 24.2828 2.01324 -2.98694
1057 2 28.0776 2.16255 -3.22931
1054 2 26.1719 4.05844 -3.32397
1117 2 27.9073 5.92347 -3.33777
1059 2 27.9232 4.14517 -1.47478
1058 2 29.8169 4.06093 -3.20009
1060 2 29.8052 2.32848 -1.40883
1063 2 31.5883 4.2434 -1.27607
1061 2 31.5885 2.38087 -3.29279
1065 2 35.3126 2.35223 -3.09945
1062 2 33.3875 4.14218 -3.1351
1064 2 33.4065 2.43835 -1.29624
1067 2 35.2874 4.09298 -1.42319
1069 2 39.0735 2.29821 -3.40225
1066 2 37.2196 4.11764 -3.24734
1129 2 39.231 5.99135 -3.44187
1068 2 37.1609 2.27801 -1.28941
1071 1 39.0441 4.10493 -1.49354
1128 2 37.0851 5.9195 -1.33948
1073 2 42.7542 2.37194 -3.34173
1070 2 41.0007 4.15694 -3.30368
1072 2 40.9178 2.30204 -1.43629
1075 2 42.8739 4.14225 -1.52866
1074 2 44.6584 4.30011 -3.10033
1077 2 46.3667 2.2999 -3.28752
1133 2 42.9285 6.00102 -3.28834
1076 2 44.7594 2.18596 -1.46729
1079 2 46.492 4.17983 -1.37782
1078 2 48.2947 4.03517 -3.13074
1081 1 -5.03064 5.95522 -3.00052
1080 1 48.2902 2.3271 -1.27573
1023 2 -5.12041 4.05136 -1.2609
1140 2 48.5423 5.74493 -1.1349
1082 2 -3.14108 7.90064 -2.89459
1085 2 -1.39787 5.99019 -3.06989
1141 2 50.3224 9.48634 -3.19225
1084 2 -3.09667 5.96807 -1.0288
1087 2 -1.37558 7.74386 -1.29763
1144 2 -3.17238 9.68718 -1.14338
1086 2 0.359409 7.79289 -3.15475
1145 2 -1.41875 9.67044 -3.2123
1148 2 0.311083 9.60532 -1.26223
1090 2 4.03501 7.84358 -3.30772
1149 1 2.16315 9.55299 -3.0488
1153 2 5.90568 9.64251 -3.2464
1091 2 2.10983 7.62887 -1.14936
1095 2 5.87282 7.65191 -1.39653
1152 2 4.08975 9.71502 -1.47001
1094 2 7.81006 7.87611 -3.23989
1157 2 9.6291 9.61817 -3.27792
1099 2 9.71412 7.74499 -1.48114
1156 1 7.82215 9.52643 -1.35513
1098 2 11.4529 7.79344 -3.37853
1103 2 13.2951 7.66141 -1.23711
1160 1 11.3485 9.64025 -1.3631
1102 2 15.0222 7.75052 -3.14788
1161 1 13.2975 9.68604 -3.17104
1107 1 16.7542 7.791 -1.275
1164 2 15.0362 9.83516 -1.2536
1106 2 18.8525 7.62688 -3.23788
1108 1 18.5617 5.83141 -1.41718
1168 1 18.745 9.54976 -1.35073
1110 2 22.4707 7.69743 -3.21546
1111 2 20.7464 7.61324 -1.38453
1112 2 22.4662 5.81942 -1.36922
1113 2 24.2808 5.71126 -3.15499
1114 1 26.1489 7.51965 -3.38612
1115 2 24.3583 7.64815 -1.37506