ITEM: TIMESTEP
3000
ITEM: NUMBER OF ATOMS
18000
ITEM: BOX BOUNDS pp pp pp
-5.1766676808290413e+00 5.0176667680829127e+01
-5.1766676808290413e+00 5.0176667680829127e+01
-6.9022235744389491e+00 6.6902223574438580e+01
ITEM: ATOMS id type x y z
2 2 -3.39984 -3.30893 -6.91844
64 2 -3.3406 -1.55004 -5.05141
5 2 -1.4998 50.1286 66.8998
7 2 -1.46139 -3.4688 -5.02854
6 2 0.392179 -3.14445 -6.91859
8 2 0.463196 50.164 -4.94694
11 2 2.20213 -3.36065 -5.117
9 2 2.20127 50.2441 66.8706
910 1 4.02127 -3.4066 -3.30514
12 2 4.13318 50.2628 -5.30568
913 2 6.08445 50.0578 -3.44498
10 2 4.03794 -3.23509 -6.88619
15 2 5.96409 -3.19256 -5.11969
76 2 7.76833 -1.39254 -5.18808
914 2 7.75902 -3.23871 -3.25214
19 1 9.48688 -3.25259 -5.15158
80 2 11.266 -1.38859 -5.09625
23 2 13.195 -3.1961 -5.21618
27 2 16.7919 -3.15868 -5.02377
31 2 20.6228 -3.47506 -5.05783
88 2 18.8095 -1.55815 -4.96173
28 2 18.6663 50.1568 -5.1113
30 1 22.7002 -3.42046 -6.68319
92 2 22.7332 -1.49438 -4.93456
32 2 22.3653 50.0304 -4.97708
35 2 24.5015 -3.47805 -4.92397
93 2 24.5897 -1.50202 -6.7447
36 1 26.3272 50.0301 -4.84715
39 2 28.116 -3.31708 -4.81105
40 2 29.8213 -5.26632 -4.89052
100 2 29.9449 -1.55659 -4.88975
38 2 29.7406 -3.42393 -6.7124
43 2 31.6191 -3.50849 -4.84212
42 2 33.6124 -3.50037 67.1096
44 2 33.7129 50.1617 -4.85573
101 2 31.758 -1.72293 67.2535
104 1 33.5614 -1.69732 -4.58804
41 2 31.6627 -5.18917 -6.61821
45 2 35.5746 -5.1228 -6.75608
47 2 35.5605 -3.41754 -4.85492
46 2 37.4135 -3.54456 -6.6632
49 2 39.3366 -5.21936 -6.77617
51 2 39.2484 -3.36423 -4.8067
108 2 37.372 -1.53288 -4.93042
55 2 42.8738 -3.37652 -4.87995
50 2 41.1262 -3.45732 -6.81616
113 2 43.0322 -1.63706 -6.88005
116 2 44.7695 -1.61843 -4.81785
59 2 46.584 -3.3351 -5.04182
54 2 44.7277 -3.35182 -6.70583
117 2 46.4847 -1.50037 -6.87927
3 2 49.9826 -3.46465 -5.06543
58 2 48.2962 -3.46079 -6.79211
124 1 -3.32221 2.17387 -5.18901
125 2 -1.49349 2.072 -7.10757
61 2 -5.23936 -1.53366 -6.65249
65 2 -1.45894 -1.55328 -6.75845
62 2 -3.40204 0.380865 -6.86799
68 2 0.339473 -1.4746 -5.0471
67 2 -1.41452 0.203745 -5.13684
69 2 2.23148 -1.50629 -6.84327
72 2 4.07634 -1.36359 -5.20376
71 2 2.17751 0.414183 -5.01963
973 2 6.05751 -1.35264 -3.23796
75 2 5.95845 0.503809 -5.193
974 2 7.75572 0.260734 -3.22957
79 2 9.6081 0.356279 -5.1827
140 2 11.2468 2.26954 -5.18642
84 2 14.9551 -1.57495 -4.983
83 2 13.1245 0.41298 -5.02309
144 2 14.9523 2.24586 -5.10989
87 2 16.9721 0.183537 -5.05471
91 2 20.6174 0.175777 -5.1625
148 1 18.9516 1.98819 -5.11367
152 2 22.4646 2.18545 -5.06992
95 2 24.4517 0.469308 -5.00543
96 2 26.3962 -1.58575 -5.01594
94 2 26.3396 0.421164 67.1529
156 1 26.2849 2.26911 -4.79626
99 2 28.2498 0.435876 -5.00917
160 2 29.907 2.38111 -4.89181
103 2 31.8476 0.30982 -5.00511
165 2 35.3863 1.96001 66.9611
109 2 39.2352 -1.58028 -6.72014
107 2 35.5178 0.0513539 -4.84347
106 2 37.1172 0.0873976 -6.7401
111 2 39.2058 0.269014 -5.08055
112 2 41.1968 -1.54698 -4.99919
115 1 42.9309 0.26973 -5.10933
119 2 46.511 0.225532 -4.99622
114 2 44.7924 0.269557 -6.94103
177 2 46.4555 2.24241 -7.02853
120 2 48.2797 -1.58356 -4.95046
63 2 50.1055 0.263973 -5.03645
118 2 48.344 0.387372 -6.72799
122 2 -3.38781 4.04114 -6.90902
127 2 -1.4122 3.95443 -5.08461
185 2 -1.61443 5.82756 -6.94451
128 1 0.423362 2.13704 -5.12063
132 2 4.00972 2.23076 -5.14422
131 2 2.2417 4.0479 -5.10323
135 2 5.92062 3.87336 -5.20138
192 2 3.96803 5.78596 -5.17856
1093 2 5.68556 5.47587 -3.47321
136 2 7.76808 2.24851 -5.22489
196 2 7.70605 5.78603 -5.20686
139 2 9.6064 4.08977 -5.24001
197 2 9.56362 5.86298 -6.99985
200 2 11.3523 5.85302 -5.22264
138 2 11.5005 4.1527 -6.94596
143 2 13.1508 4.0475 -5.15556
147 1 16.8727 4.02161 -5.21925
141 2 13.1604 2.1058 -6.8668
208 2 18.7216 5.85767 -4.91197
155 1 24.3512 4.0456 -5.09566
151 2 20.6019 3.97478 -5.03604
212 2 22.5224 5.8848 -4.94091
216 2 26.3239 6.07413 -5.01139
158 2 29.9549 3.98772 67.0335
159 2 28.0581 4.15138 -4.96825
220 2 29.9285 6.03909 -4.94905
163 2 31.8261 3.99238 -5.08803
164 2 33.6343 1.94231 -5.00538
167 2 35.4538 3.81041 -4.91289
162 2 33.5832 3.85447 66.917
168 2 37.316 1.92939 -5.08167
169 2 38.9983 1.9295 -6.84727
171 2 39.1426 3.76998 -5.13522
166 2 37.2895 3.81298 66.9935
229 2 38.9921 5.60927 -6.91314
172 2 40.9813 2.03971 -5.13373
170 2 40.8345 4.02696 -6.89028
175 1 42.8841 3.82848 -5.05995
232 2 40.788 5.68668 -5.12168
233 2 42.7128 5.80945 -6.75242
176 2 44.8018 2.08533 -5.09853
179 2 46.4822 4.0669 -5.08388
174 2 44.576 4.04155 66.7926
180 2 48.1866 2.18275 -4.9112
123 2 -5.28479 3.93496 -5.11915
182 2 -3.23841 7.70377 -6.76329
184 2 -3.278 5.76074 -4.89688
187 2 -1.35816 7.65235 -4.97171
183 2 -5.19234 7.67863 -4.92664
188 2 0.346228 5.76022 -5.00836
248 2 0.432624 9.52229 -4.98809
186 2 0.224532 7.55814 -6.80835
191 2 2.19613 7.58911 -4.87949
252 2 4.05064 9.42028 -4.93633
195 2 5.81791 7.55023 -5.02412
256 2 7.80662 9.39841 -4.95361
199 2 9.45873 7.6305 -5.08242
203 2 13.0583 7.65141 -5.12025
260 2 11.153 9.50949 -4.98136
204 1 15.1132 5.96654 -5.17231
264 2 15.0313 9.47825 -5.13668
207 2 17.0263 7.8514 -4.88443
206 2 18.6836 7.71328 -6.71226
265 2 16.9065 9.52703 -6.83748
1165 2 16.9611 9.8764 -3.38937
211 2 20.7619 7.75207 -5.04219
1169 1 20.6937 9.71718 -3.24508
210 2 22.6562 7.61993 -6.88033
215 2 24.4477 7.72858 -5.12844
217 2 28.3231 5.90408 -6.77843
219 2 28.1961 7.75663 -4.939
223 2 31.8718 7.53884 -4.90141
280 2 29.8761 9.72367 -5.08142
224 2 33.6712 5.55874 -4.88189
225 2 35.4387 5.76645 67.1076
227 2 35.4166 7.59635 -5.03353
284 1 33.7564 9.56747 -4.99529
228 2 37.2262 5.7039 -5.20065
231 2 39.0038 7.64428 -5.12826
288 2 37.3472 9.52961 -5.02924
1189 2 39.0428 9.63316 -3.32369
289 2 38.9281 9.68112 -6.88003
292 2 40.8471 9.65657 -5.12191
235 2 42.6489 7.67127 -4.90547
236 2 44.8088 5.83475 -4.95867
293 2 42.6882 9.65506 -6.92421
296 2 44.4147 9.54184 -5.07753
239 2 46.4835 7.80436 -5.20594
240 2 48.2556 5.80973 -5.00183
300 2 48.1696 9.43622 -4.945
1197 2 46.2593 9.52595 -3.24645
244 2 -3.23313 9.46878 -5.0403
304 2 -3.18764 13.2637 -5.01386
243 2 50.253 11.4229 -5.0661
247 2 -1.36991 11.3248 -5.00762
251 2 2.22468 11.1877 -4.876
308 2 0.457757 13.1236 -5.0448
312 2 4.10683 13.3425 -5.04827
255 1 5.83522 11.3271 -4.83477
259 2 9.47673 11.3077 -4.85371
316 2 7.65926 13.0986 -4.9092
320 1 11.3552 13.0428 -4.94568
263 2 13.2162 11.1547 -5.14035
267 2 17.0518 11.4319 -5.28641
324 2 15.2255 13.0804 -5.03875
266 2 18.8194 11.4455 66.9469
268 2 18.8626 9.57511 -5.22253
271 2 21.0174 11.5846 -5.16429
328 2 18.8415 13.223 -5.07053
329 2 20.734 13.3571 67.0262
269 2 20.8629 9.72806 -6.83496
270 2 22.6182 11.3368 -6.7588
272 2 22.5946 9.48788 -5.04741
1170 2 22.6987 11.42 -3.2247
275 2 24.4921 11.5198 -5.0069
276 2 26.2578 9.69114 -4.98296
336 2 26.2709 13.189 -5.01672
279 2 28.1139 11.4334 -5.00055
340 2 29.9755 13.2717 -5.01568
283 2 31.7075 11.6156 -5.10366
287 1 35.5381 11.4361 -5.03318
344 2 33.501 13.241 -5.13043
345 2 35.4591 13.3646 66.9238
291 2 38.9577 11.5595 -5.0601
348 2 37.1839 13.5109 -5.05759
286 2 37.2233 11.4527 66.9315
349 1 38.9365 13.5449 -6.80769
352 2 40.774 13.4254 -4.82823
290 1 40.7542 11.5521 -6.94096
295 2 42.6651 11.4343 -5.18225
356 2 44.4215 13.1021 -4.98894
299 2 46.343 11.3509 -5.07207
360 2 48.0829 13.2162 -5.09261
303 2 50.1745 14.8932 -5.02137
364 2 -3.48699 16.7444 -4.96982
307 2 -1.37203 14.8633 -5.06727
368 1 0.351856 16.8258 -4.99809
311 2 2.2466 14.9527 -5.01361
372 2 3.99268 16.8644 -5.11109
315 2 5.98255 14.9882 -5.05349
376 2 7.64276 16.8411 -4.97863
1273 2 5.81487 16.6449 -3.20637
319 2 9.48694 15.1733 -4.98772
380 2 11.4025 16.8076 -4.88132
1277 2 9.46039 16.8236 -3.05493
323 1 13.3753 14.9593 -4.98487
327 2 17.1556 14.9637 -5.03701
384 2 15.257 16.7574 -4.99146
385 2 16.9283 16.7389 -7.00442
331 2 20.684 15.1406 -5.02249
326 2 18.8467 14.9351 66.8533
332 2 22.6288 13.38 -5.00155
335 2 24.3328 15.2832 -5.01359
330 2 22.3971 15.2231 66.9789
334 1 26.2719 15.0846 -6.91455
1234 2 26.2012 15.0451 -3.12914
1233 2 24.4369 13.1473 -3.14177
339 2 28.0739 14.9488 -5.01311
343 2 31.7147 15.1759 -5.006
347 2 35.2816 15.2128 -5.02581
405 2 35.2361 17.1039 66.9032
351 2 39.083 15.3448 -4.94157
408 2 37.2137 17.0536 -5.21862
409 2 38.8769 17.1153 66.8619
412 1 40.9498 17.3443 -5.04117
350 1 40.9535 15.3029 66.9007
355 1 42.7182 15.1748 -5.0944
416 2 44.6894 16.9503 -5.04221
417 2 46.7006 16.8624 66.756
358 2 48.5065 15.0259 67.0544
359 2 46.3441 14.9558 -5.09153
420 2 48.2759 16.7642 -5.00794
363 2 -5.06108 18.56 -4.97389
367 1 -1.56612 18.6262 -5.03811
1321 2 50.3363 20.3419 -3.21536
428 2 0.396617 20.6154 -5.0634
1329 2 2.15297 20.5139 -3.30292
371 2 2.06261 18.7501 -5.08115
432 2 4.01242 20.471 -5.18096
1270 2 4.04066 18.5769 -3.32981
375 2 5.90033 18.3987 -5.09218
436 2 7.5118 20.4719 -5.00666
1274 2 7.57833 18.7162 -3.28042
1333 2 5.67539 20.5824 -3.24548
1337 2 9.44798 20.6364 -3.24432
379 1 9.49706 18.7707 -5.01977
1278 2 11.5011 18.729 -3.29898
383 2 13.4012 18.6701 -5.16401
382 2 15.0945 18.5299 66.8724
387 2 17.0646 18.556 -5.14161
388 2 18.8929 16.8357 -5.1634
389 2 20.6805 16.9445 -7.0801
391 2 20.9029 18.8104 -5.02059
386 2 18.8555 18.5237 -7.05028
392 2 22.5276 16.9505 -5.07273
395 2 24.3613 18.7386 -5.04463
393 2 24.2892 16.9551 66.9088
396 2 26.1823 16.9738 -4.89046
394 1 26.1288 18.773 66.9741
1294 2 26.1292 18.783 -3.02669
397 1 28.0275 16.9574 66.9117
400 2 29.8051 16.8974 -5.19463
1297 1 28.0943 16.9218 -2.99839
399 2 27.9721 18.9024 -4.83245
404 2 33.4254 16.9017 -5.22439
403 2 31.4537 18.6692 -4.79149
407 2 35.3707 19.0006 -5.07352
1365 2 35.4006 20.6187 -3.34515
468 2 37.0797 20.7246 -5.21297
411 2 38.9263 18.9526 -5.14792
472 1 40.852 20.5468 -5.09782
410 2 40.8173 18.8343 66.7782
415 2 43.169 18.8281 -5.10293
419 2 46.595 18.6958 -5.09416
477 2 46.6019 20.4094 66.9773
418 1 48.5672 18.6353 66.9233
480 2 48.4769 20.4949 -4.91386
424 2 -3.48711 20.4676 -5.11468
1322 2 -3.36094 22.331 -3.27383
484 2 -3.25318 24.1103 -4.87389
1381 2 50.3027 24.2365 -3.22613
427 2 -1.48722 22.4313 -5.08883
431 2 1.94266 22.4334 -5.34662
488 2 0.383573 24.3492 -5.30405
430 2 3.8372 22.4623 -6.82873
492 2 3.6778 24.4312 -5.17188
493 2 5.84966 24.2664 66.8712
435 2 5.86878 22.4316 -5.26204
496 2 7.60544 24.0518 -5.08278
440 2 11.5395 20.5107 -5.09867
1341 2 13.3129 20.5921 -3.47341
443 2 13.3176 22.4244 -5.25147
439 2 9.48324 22.3419 -5.16396
444 2 15.1069 20.4511 -5.24231
447 2 17.1566 22.3109 -5.21617
445 2 16.9619 20.4837 66.8655
448 1 18.9398 20.5271 -5.14191
451 2 20.744 22.4611 -4.99687
446 2 18.7477 22.444 -6.95993
452 2 22.6681 20.5514 -5.03227
453 2 24.333 20.7404 -6.92873
455 2 24.4284 22.5539 -4.99677
456 2 26.0916 20.7205 -4.85565
1353 2 24.2967 20.5403 -3.16985
1354 2 26.1052 22.5403 -3.01376
460 2 29.738 20.5736 -5.01753
1357 2 28.0578 20.6628 -3.02253
459 2 27.9152 22.5094 -4.90321
1358 2 29.8637 22.5785 -3.18102
461 2 31.4265 20.7089 -6.80528
463 2 31.5385 22.4397 -5.06431
464 2 33.4544 20.9365 -5.09508
521 2 31.6548 24.3898 -6.62346
524 2 33.5335 24.3673 -4.93244
467 2 35.4619 22.5498 -5.1198
528 2 37.1874 24.291 -5.0858
471 2 38.9071 22.5682 -5.2681
475 2 42.7307 22.4114 -5.05759
476 2 44.9115 20.6315 -4.88237
474 1 44.7652 22.37 66.8492
423 2 -5.25572 22.3624 -4.82784
479 2 46.6831 22.2214 -5.06621
540 2 48.34 24.2497 -4.80132
483 2 -4.87818 26.0924 -4.91028
541 1 -5.11112 28.1027 66.8924
487 1 -1.51573 26.25 -5.08708
491 2 2.009 26.3927 -5.28748
490 2 3.99821 26.2299 -6.99389
495 2 5.88137 26.054 -5.23289
499 2 9.43549 25.9744 -5.1188
500 2 11.2709 24.1606 -5.2026
503 2 13.1815 25.8944 -5.07209
560 2 11.3084 27.9801 -5.21537
504 2 15.1994 24.1942 -5.07102
507 2 17.0432 26.0828 -5.0818
564 1 15.128 27.8674 -5.18113
565 1 16.9915 27.9296 66.7807
508 2 19.0097 24.2844 -5.12391
511 2 20.9071 26.3051 -5.07673
506 2 18.9422 26.0784 66.7347
509 2 20.6474 24.4878 66.9859
512 2 22.6371 24.4176 -5.09791
515 2 24.3002 26.1459 -5.17281
510 2 22.4701 26.179 66.821
516 2 26.1875 24.2801 -4.99305
576 2 26.0719 28.0476 -4.91358
519 2 27.8935 26.2509 -5.14156
520 2 29.7058 24.4133 -5.02368
580 2 29.742 28.03 -5.04407
523 2 31.5651 26.2831 -4.94953
584 1 33.5704 28.0664 -4.93457
527 2 35.3902 26.2843 -4.97128
531 1 39.1297 26.0631 -5.09573
588 2 37.2642 27.9962 -5.16374
532 2 40.8889 23.993 -5.00528
535 2 42.8353 26.112 -5.03201
536 1 44.6665 24.1721 -5.03379
537 2 46.6683 24.0875 66.9215
539 2 46.5041 25.9913 -5.08338
596 2 44.6614 27.9741 -4.89518
533 1 42.7794 24.2023 66.8131
534 2 44.575 26.1724 67.0541
600 1 48.3231 27.9503 -4.98671
538 1 48.4093 26.0002 66.9761
543 2 -5.17601 30.0796 -5.05775
544 2 -3.44567 28.1002 -5.08938
547 2 -1.49469 29.9616 -5.19609
548 2 0.255766 28.0624 -5.04604
1446 2 0.253825 29.8936 -3.31583
551 2 2.10724 29.7744 -5.0856
552 2 4.07381 28.0754 -5.16737
555 2 5.84981 29.926 -5.14579
556 2 7.55375 27.917 -5.23497
559 2 9.44797 29.9286 -5.25713
558 2 11.4357 29.9657 66.9166
563 2 13.0796 29.8474 -5.14001
620 2 11.3704 31.8255 -5.07901
567 1 16.95 29.9289 -5.05558
624 2 14.9466 31.8059 -4.99331
625 2 16.9258 31.9978 66.869
568 1 18.7959 27.981 -5.03948
569 2 20.6645 27.9468 -6.85861
628 2 18.8774 31.9198 -4.97233
571 2 20.7206 29.9727 -5.03381
1470 2 22.7067 29.9597 -3.41331
570 2 22.6304 29.9728 -6.73585
572 2 22.6257 27.9855 -5.09972
575 2 24.4573 29.9319 -4.97404
574 2 26.0171 30.0725 66.9382
636 2 26.2053 31.9218 -5.07362
637 2 27.9849 32.0706 67.0738
578 1 29.8284 29.9282 66.6995
579 1 28.0863 29.9237 -5.06242
640 2 29.8254 31.9743 -5.13106
583 1 31.5147 29.9942 -5.12263
644 2 33.6499 31.5964 -5.1121
641 2 31.7025 31.7033 66.7615
587 2 35.5168 29.844 -4.99423
591 2 39.0482 29.6989 -5.05087
586 2 37.2997 29.9337 66.7809
590 2 41.0794 29.7912 67.0898
592 2 41.066 27.8988 -5.00846
649 2 39.222 31.6046 67.0898
593 2 42.9244 27.8651 66.7333
594 2 44.5327 29.797 -6.58024
595 2 42.8813 29.8787 -4.81018
597 2 46.3565 28.112 -6.8049
599 1 46.5406 30.044 -4.94308
657 2 46.4721 31.9216 -6.61338
660 2 48.3688 32.0461 -4.85604
598 1 48.2575 30.06 -6.70665
602 2 -3.32269 33.8227 66.893
604 2 -3.31811 31.9981 -5.07008
601 2 -5.09186 31.9069 -6.85229
608 2 0.292417 31.7344 -4.86403
607 2 -1.58113 33.5189 -5.06713
611 2 2.08039 33.7967 -4.95453
612 1 3.8054 31.6577 -5.1821
615 2 5.86173 33.5924 -5.23884
610 2 3.9322 33.5849 -7.01964
616 2 7.67459 31.7704 -5.11785
619 2 9.45098 33.5842 -4.89265
623 2 13.0841 33.6632 -4.92117
627 2 16.8657 33.6587 -4.86309
1522 2 15.0052 33.6511 -3.2318
1585 2 16.995 35.4255 -3.33658
685 2 16.9004 35.4824 -6.62165
631 2 20.7067 33.6769 -5.06001
688 2 18.9559 35.4869 -5.06954
626 2 18.6862 33.6515 -6.81213
689 2 20.7974 35.4401 66.9356
629 2 20.6362 31.875 67.0302
632 2 22.573 31.7517 -5.11348
633 2 24.3641 31.7847 66.8942
635 2 24.3177 33.6447 -5.09819
692 2 22.5726 35.353 -4.93871
630 2 22.5377 33.6454 -6.79968
693 2 24.2401 35.6334 66.9244
634 2 26.2068 33.7449 -6.74925
696 2 26.2403 35.4395 -4.97205
639 2 28.1088 33.8025 -4.84223
697 1 28.1269 35.6937 66.88
700 1 30.0543 35.6455 -4.9823
701 2 31.9754 35.715 66.9273
638 1 30.0808 33.9222 66.8065
642 2 33.5996 33.5774 66.8986
643 2 31.8923 33.5309 -5.0322
645 2 35.4166 31.656 66.9094
648 2 37.3078 31.7733 -5.05803
647 2 35.4663 33.5501 -4.99359
651 2 39.1046 33.479 -5.06859
646 2 37.2326 33.4869 66.9424
652 2 40.9234 31.5709 -4.99177
650 2 41.1542 33.5425 -6.89154
653 2 42.8798 31.6168 -6.56264
656 2 44.5488 31.8829 -4.85857
654 2 44.6011 33.7577 -6.75867
655 2 42.7524 33.5937 -4.98968
603 2 -5.07867 33.6899 -5.07721
658 2 48.3527 33.8526 -6.57707
659 2 46.4324 33.862 -4.88281
717 2 46.4672 35.5897 -6.71781
664 2 -3.22814 35.4764 -5.12275
665 2 -1.39163 35.3931 -6.96082
662 2 -3.30305 37.338 66.9005
667 2 -1.47461 37.3477 -5.15358
668 2 0.251334 35.4273 -4.96453
669 2 2.07999 35.3978 -6.84536
1569 2 2.08075 35.6733 -3.24682
671 2 2.0681 37.2919 -5.1062
672 2 3.93718 35.5203 -5.26842
675 2 5.7919 37.2867 -5.14452
676 2 7.67637 35.4899 -5.08921
674 2 7.45489 37.3941 -6.88878
1574 2 7.59929 37.3999 -3.34498
680 2 11.3186 35.6252 -4.92666
679 2 9.43706 37.3724 -5.06271
683 2 13.2342 37.134 -5.15808
684 2 14.9389 35.5144 -4.82605
687 2 17.0008 37.292 -5.04585
682 2 15.1415 37.2968 -6.85245
691 1 20.8197 37.3822 -5.16344
748 2 18.8574 39.1 -5.249
686 2 18.702 37.3507 66.9677
749 2 20.7717 39.3399 -6.94777
752 2 22.5436 39.4303 -5.01944
695 1 24.306 37.4317 -5.01887
690 2 22.5504 37.4368 -7.18152
694 1 26.3991 37.5462 -6.73167
699 1 28.1854 37.6135 -4.90753
698 2 30.2108 37.4916 66.9429
703 2 31.9818 37.5612 -5.10314
757 2 28.3677 39.1867 66.684
704 2 33.8652 35.5693 -5.16818
702 2 33.8413 37.4887 66.9191
707 2 35.6231 37.3309 -4.8927
1602 2 33.7303 37.3928 -3.36411
705 2 35.6506 35.4547 66.9273
708 2 37.2572 35.305 -5.05281
709 2 39.0195 35.3444 66.9521
712 2 40.7819 35.3478 -5.03637
711 2 39.0655 37.3415 -5.0043
710 2 41.0204 37.313 -6.65987
713 2 42.6924 35.3987 -6.73046
716 2 44.6223 35.5005 -4.90472
715 2 42.5595 37.2127 -4.81247
714 1 44.3747 37.3502 -6.73569
661 2 50.1953 35.6173 -6.79335
720 2 48.2303 35.5937 -4.93029
663 2 -4.98273 37.507 -5.00978
718 2 48.3494 37.4597 -6.80227
719 2 46.3816 37.4065 -5.00408
724 2 -3.22319 39.2324 -5.06495
723 2 -5.06925 41.1073 -4.97001
728 2 0.236488 39.1967 -4.96857
1629 2 2.16858 39.2162 -3.2066
727 2 -1.46838 41.1829 -4.99429
731 2 2.16116 40.9151 -5.09335
788 2 0.256589 42.8757 -5.11195
732 2 3.97093 39.1623 -5.12987
735 2 5.799 41.0487 -5.08949
736 2 7.60527 39.2186 -5.13965
734 2 7.58118 41.0104 -7.00769
1634 2 7.51273 41.0478 -3.27382
740 2 11.2502 39.0975 -5.13959
739 2 9.45262 40.9813 -5.12564
743 2 13.1044 40.8973 -5.11945
737 2 9.40203 39.1774 -6.99899
738 2 11.211 40.9355 -6.92261
741 2 13.1819 39.1889 -6.85692
744 2 14.8966 39.1597 -5.10188
745 2 16.8508 39.1033 -6.9631
747 2 16.7709 40.9632 -5.08376
742 2 14.9926 40.9734 66.775
805 2 16.914 42.8366 -6.89373
751 2 20.5424 41.0793 -5.1455
808 2 18.7164 42.9435 -4.95391
746 2 18.8674 41.2218 -6.77443
755 2 24.4245 40.9825 -4.91429
753 2 24.3267 39.3681 66.9332
809 2 20.7088 42.946 -7.00987
750 2 22.6061 41.0742 -6.92621
756 2 26.1047 39.3033 -4.6855
754 1 26.2942 40.9726 67.1475
760 2 30.2372 39.1567 -4.96129
759 2 28.2841 40.7743 -4.98091
763 2 32.0842 41.0522 -4.89118
758 2 30.2208 40.9456 67.032
761 2 32.2153 39.3365 66.8853
764 2 33.9599 39.2473 -5.04985
767 2 35.6176 41.0403 -5.18393
825 2 35.6978 42.8592 66.5018
765 2 35.6942 39.3118 -6.89663
762 2 33.9573 41.0342 66.7834
768 2 37.4688 39.1657 -4.97381
828 1 37.2207 43.0019 -5.12253
772 2 40.7894 39.2499 -4.88927
771 2 39.265 41.1025 -4.99974
829 1 39.2136 42.9581 -6.85907
832 2 41.047 42.9803 -4.77464
769 2 38.9808 39.2445 67.0634
770 2 41.1674 41.1422 66.9625
776 2 44.6693 39.1135 -4.80785
775 2 42.8385 41.0394 -5.08572
773 2 42.664 39.2406 -6.73376
774 2 44.4899 40.9842 67.0097
780 1 48.4797 39.2794 -5.14765
779 2 46.3862 41.0478 -4.9773
777 2 46.3314 39.3605 67.0143
784 2 -3.27835 43.0179 -4.96729
787 2 -1.51343 44.8041 -5.102
786 2 0.290654 44.714 66.9924
791 1 2.2089 44.7038 -4.98024
792 2 4.07505 42.8362 -5.04874
795 2 5.85124 44.5915 -5.15781
852 2 3.9445 46.4713 -4.92958
793 2 5.78766 42.8166 -6.96268
794 2 7.72335 44.7647 -6.89645
796 2 7.68987 42.8091 -5.29831
1693 2 5.85486 42.8302 -3.31167
799 2 9.49758 44.8159 -5.13595
800 2 11.4467 42.814 -5.11354
803 2 13.2636 44.7178 -5.12461
804 2 15.089 42.804 -5.0718
802 2 15.0423 44.5315 -6.9586
807 2 16.7571 44.6661 -5.08707
806 1 18.7323 44.6151 -6.98057
811 2 20.4982 44.6295 -4.85817
810 2 22.4759 44.6226 67.2187
812 2 22.3934 42.6773 -4.97811
815 2 24.3616 44.6612 -4.88603
813 2 24.3424 42.8996 66.8899
816 1 26.4487 42.8767 -4.94759
814 2 26.4192 44.6613 67.0225
817 1 28.2909 42.7368 66.8458
818 2 30.0809 44.5595 67.042
819 2 28.443 44.6373 -4.88243
820 2 30.1598 42.7103 -4.85741
880 2 30.2508 46.3765 -4.78729
821 1 32.0529 42.7983 66.967
823 2 32.0805 44.7779 -5.07196
824 2 34.0073 42.9268 -5.03576
822 2 33.7882 44.5894 66.8639
827 2 35.4346 44.9132 -5.10805
826 2 37.4213 44.9395 66.6872
885 2 35.4516 46.6823 66.8417
888 2 37.4996 46.4536 -5.09096
831 2 39.3605 44.6924 -4.95983
889 2 39.2835 46.4259 -6.74485
892 2 41.0908 46.5106 -4.9948
830 2 41.0339 44.6147 66.9578
893 1 42.8506 46.5721 66.8461
835 2 42.8315 44.6958 -4.89246
836 2 44.4944 42.9083 -4.91383
839 2 46.4108 44.5698 -4.91809
896 2 44.6906 46.4377 -5.01241
833 2 42.7968 42.8406 67.0606
834 2 44.649 44.7008 66.8858
783 2 -5.27427 44.7049 -5.02873
838 2 48.2973 44.7239 66.9116
840 2 48.3135 42.6963 -5.04775
900 2 48.2136 46.3332 -5.01981
781 1 49.9931 42.8304 66.9103
4 2 -3.2808 50.097 -4.95677
841 2 -5.33549 46.5476 -6.82369
842 2 -3.26468 48.302 -6.96157
844 2 -3.2865 46.5283 -5.09653
845 2 -1.45592 46.616 66.8423
847 2 -1.3685 48.4288 -4.98887
909 2 2.03109 50.18 -2.99229
848 2 0.26374 46.5103 -5.14872
851 2 2.19965 48.4223 -5.14641
846 2 0.334335 48.304 66.935
855 2 5.94543 48.3035 -5.24386
16 2 7.68613 50.2324 -5.17995
856 2 7.63447 46.6072 -5.19586
859 2 9.47247 48.3871 -5.18216
20 2 11.2724 50.2353 -5.17632
860 2 11.4465 46.5097 -5.29405
24 2 15.0127 50.2421 -5.15946
863 2 13.2848 48.4483 -5.19757
864 2 15.0393 46.5951 -5.14947
867 2 16.8285 48.3522 -5.08223
29 2 20.6465 49.9693 -6.85711
868 2 18.645 46.4835 -5.02174
871 2 20.3904 48.4122 -4.93597
869 1 20.7504 46.5807 67.0191
870 2 22.5494 48.2828 -6.57827
872 2 22.4037 46.3687 -4.79246
873 1 24.4665 46.442 67.0331
874 2 26.5511 48.1852 66.8216
875 2 24.4062 48.2975 -4.68707
876 1 26.3054 46.4255 -4.81212
877 2 28.3309 46.4172 67.2404
878 1 30.0025 48.411 66.9785
879 2 28.2054 48.1903 -4.85307
883 2 31.7927 48.2537 -4.99662
884 2 33.7332 46.7459 -5.04397
881 2 31.8387 46.5342 67.0047
882 1 33.6628 48.4812 66.8541
48 2 37.4867 50.0813 -4.77673
887 2 35.6148 48.4601 -4.83046
886 1 37.2622 48.4033 -6.93565
52 2 41.1321 -5.25892 -4.97113
891 2 39.1893 48.205 -4.95262
890 2 40.8781 48.3506 -6.89123
53 2 42.8597 50.1107 -6.75836
895 2 42.8771 48.2774 -4.79445
56 1 44.7364 50.168 -4.90833
894 2 44.7588 48.3393 -7.036
57 2 46.5973 49.9932 -6.86881
897 2 46.4303 46.3946 -6.95575
899 2 46.446 48.1025 -5.13232
1 1 -5.23548 50.122 -6.86978
843 2 -5.01449 48.1816 -5.00683
60 2 48.216 50.1332 -4.9651
898 2 48.3148 48.2058 -6.86491
902 1 -3.29484 -3.33566 -3.22934
905 2 -1.31348 50.2005 -3.24764
904 2 -3.13904 50.1321 -1.40182
907 2 -1.55866 -3.36821 -1.30233
906 2 0.31305 -3.37452 -3.30226
908 2 0.292372 50.1469 -1.39587
911 2 2.07966 -3.35723 -1.14714
915 1 5.94502 -3.45415 -1.46318
912 2 3.92281 50.1432 -1.37382
919 2 9.56895 -3.29494 -1.39837
918 2 11.3574 -3.12595 -3.41183
920 2 11.3466 50.4109 -1.44921
980 2 11.3809 -1.52646 -1.3207
923 2 13.2566 -3.29065 -1.62894
922 2 15.0197 -3.30276 -3.36786
981 2 13.0412 -1.41249 -3.4352
984 2 15.156 -1.48531 -1.53598
985 2 16.8525 -1.51543 -3.28755
926 2 18.6876 -3.47775 -3.28426
989 1 20.6477 -1.59406 -3.18795
929 2 20.5683 50.2218 -3.10108
927 2 16.9386 -3.45724 -1.57994
931 2 20.4703 -3.43504 -1.46374
988 2 18.6189 -1.74128 -1.25389
928 2 18.697 50.1854 -1.36004
930 2 22.4929 -3.54721 -3.2591
992 2 22.4945 -1.74217 -1.42275
932 2 22.4778 50.0133 -1.43624
934 2 26.2822 -3.30445 -3.12249
933 2 24.2889 50.1138 -3.25544
935 1 24.3397 -3.40313 -1.36137
996 2 26.2047 -1.5582 -1.2064
936 1 26.1971 50.0347 -1.22013
938 2 29.8373 -3.62599 -3.12028
997 2 28.1058 -1.68698 -2.97795
937 2 28.1487 -5.45841 -3.13216
939 2 28.2416 -3.64452 -1.11237
940 2 30.0116 -5.52573 -1.25038
1000 2 29.8897 -1.6577 -1.23151
941 2 31.7556 49.8802 -3.12566
942 2 33.6788 -3.73358 -2.94844
945 2 35.6175 50.0402 -2.93934
943 2 31.8031 -3.63355 -1.00939
947 2 35.586 -3.57111 -1.26013
944 2 33.7437 49.9409 -1.15027
946 2 37.3578 -3.4428 -2.99567
951 2 39.1675 -3.41616 -1.13524
950 2 40.9957 -3.35567 -3.04477
953 2 42.7708 50.1759 -3.05422
1013 2 42.964 -1.57683 -3.07948
952 2 41.0442 50.078 -1.24546
955 2 42.9958 -3.26825 -1.20205
1012 2 41.0157 -1.60616 -1.13263
954 2 44.6275 -3.37257 -3.10979
957 2 46.6949 50.1714 -3.13117
956 2 44.678 50.237 -1.27318
901 2 -5.16525 50.0765 -3.41342
958 2 48.3499 -3.4314 -3.17221
903 1 -5.11248 -3.30399 -1.28822
959 2 46.5925 -3.45032 -1.32986
960 2 48.368 50.1992 -1.07439
965 2 -1.3892 -1.36497 -3.35538
962 2 -3.2147 0.221889 -3.1863
1025 2 -1.50771 2.10935 -3.11779
964 2 -3.20811 -1.49794 -1.34191
967 2 -1.48363 0.43178 -1.19825
1024 2 -3.40207 1.98716 -1.26863
969 2 2.16212 -1.45048 -3.38377
966 2 0.212921 0.428336 -3.14432
968 1 0.377706 -1.3933 -1.30446
970 2 4.07261 0.358659 -3.354
1033 1 5.82603 2.15267 -3.22244
972 1 3.94262 -1.53944 -1.32674
971 2 2.11559 0.428217 -1.38249
975 2 5.82193 0.270082 -1.34158
977 2 9.58381 -1.45433 -3.13892
976 2 7.75569 -1.4888 -1.28334
1036 2 7.80748 2.14748 -1.37059
979 2 9.52524 0.25574 -1.28316
978 2 11.4005 0.389968 -3.21708
1037 2 9.39922 2.09685 -3.33949
1040 1 11.3125 2.30934 -1.42289
983 2 13.2999 0.195295 -1.4193
1041 2 13.2056 2.0392 -3.3457
982 2 15.0295 0.399586 -3.35603
1045 2 16.8255 2.22563 -3.2538
986 2 18.7167 0.319666 -3.16821
987 2 16.8571 0.427361 -1.51118
991 1 20.3929 0.318071 -1.23112
993 2 24.4867 -1.48511 -3.18236
990 1 22.5776 0.302365 -3.06059
994 2 26.3073 0.320317 -3.14267
995 2 24.6032 0.474587 -1.3855
1056 2 26.2426 2.22368 -1.16179
998 1 30.1176 0.368196 -3.19397
999 2 28.1162 0.358497 -1.299
1001 2 31.618 -1.95375 -2.92168
1002 2 33.7133 0.333923 -3.06948
1004 1 33.6535 -1.61314 -1.25957
1003 1 31.7844 0.155277 -1.37146
1005 2 35.691 -1.67716 -2.89139
1009 1 39.3579 -1.57179 -3.05554
1006 2 37.4053 0.187173 -3.1111
1008 2 37.4954 -1.56403 -1.15709
1007 2 35.5597 0.248636 -1.28979
1011 2 39.3598 0.364693 -1.24069
1010 2 41.1499 0.430044 -3.15145
1015 1 42.8774 0.292042 -1.28219
1017 2 46.5281 -1.53377 -3.18446
1014 2 44.6555 0.178173 -3.16866
1016 2 44.768 -1.6096 -1.18906
1019 2 46.4806 0.265573 -1.34951
961 2 -5.09914 -1.54327 -3.30689
1021 2 -5.21625 2.09971 -3.33969
1018 2 48.39 0.265347 -3.09414
1020 2 48.3637 -1.64735 -1.44838
963 2 -4.99512 0.249369 -1.24257
1022 1 -3.33609 3.87351 -3.2302
1027 2 -1.41215 3.89905 -1.26112
1029 2 2.20173 2.1255 -3.27662
1026 2 0.458588 3.95969 -3.15844
1089 2 2.08375 5.6998 -3.1822
1028 2 0.333703 2.12669 -1.36711
1031 2 2.07069 4.01236 -1.26828
1088 2 0.235277 5.78695 -1.24841
1030 2 3.90669 3.8392 -3.29879
1032 2 3.97704 2.08659 -1.40392
1092 1 4.05749 5.71462 -1.42013
1034 2 7.6655 3.99601 -3.33966
1035 2 5.82517 3.9126 -1.23809
1096 1 7.43461 5.78123 -1.38546
1039 2 9.44011 3.95558 -1.47857
1038 2 11.3556 3.98433 -3.42322
1097 1 9.48555 5.77809 -3.26054
1101 2 13.0801 5.83087 -3.37818
1100 2 11.4756 5.79401 -1.22179
1042 2 14.8601 3.8793 -3.29588
1105 2 16.7212 5.72221 -3.2924
1044 2 14.9237 2.15799 -1.41972
1043 2 13.1249 3.97427 -1.47095
1104 2 15.1556 5.68863 -1.49427
1046 2 18.7129 4.06182 -3.18538
1048 2 18.5658 2.16864 -1.34479
1047 2 16.7456 3.90208 -1.61586
1049 2 20.5493 2.14869 -3.17348
1050 2 22.2551 3.96906 -3.30056
1109 2 20.703 6.06817 -3.33724
1052 2 22.373 2.33636 -1.46136
1051 2 20.5636 4.14257 -1.47611
1055 2 24.2704 4.0942 -1.48789
1053 2 24.4648 2.29306 -3.07342
1057 2 28.1756 2.2644 -2.98982
1054 2 26.2101 4.25028 -3.12232
1117 2 28.0389 6.03789 -3.21088
1059 2 28.0863 4.10116 -1.38535
1058 2 29.9504 4.25781 -3.07716
1060 2 30.1063 2.49317 -1.51012
1063 2 31.8677 4.03901 -1.38186
1061 2 31.8332 2.22444 -3.3203
1065 2 35.4443 2.02142 -3.00997
1062 2 33.6789 3.94954 -3.04543
1064 2 33.6651 2.17322 -1.33262
1067 2 35.5056 4.0148 -1.19792
1069 2 39.3794 1.9214 -3.23326
1066 2 37.2317 3.78164 -3.279
1129 2 38.9794 5.77606 -3.31972
1068 2 37.4306 1.90086 -1.42531
1071 1 39.1521 3.7942 -1.45592
1128 2 37.2563 5.61411 -1.39956
1073 2 42.9906 2.13575 -3.06089
1070 2 41.0155 4.09897 -3.33911
1072 2 41.1301 2.18916 -1.38884
1075 2 43.0213 4.21396 -1.45452
1074 2 44.6877 3.87622 -3.37315
1077 2 46.4726 2.01537 -3.2444
1133 2 42.7155 5.85673 -3.39514
1076 2 44.8711 2.12367 -1.38718
1079 2 46.5353 3.99311 -1.39762
1078 2 48.2237 3.96863 -3.09979
1081 1 -5.21149 5.77366 -3.08993
1080 1 48.5407 2.1035 -1.21029
1023 2 -5.00103 3.89902 -1.12276
1140 2 48.3819 5.77976 -1.23073
1082 2 -3.30367 7.51226 -3.22809
1085 2 -1.3079 5.66465 -3.23212
1141 2 50.0661 9.5792 -3.3842
1084 2 -3.16123 5.62997 -1.11428
1087 2 -1.61554 7.46378 -1.50232
1144 2 -3.37647 9.42914 -1.38154
1086 2 0.240089 7.60554 -3.07099
1145 2 -1.53863 9.51442 -3.31981
1148 2 0.154035 9.36158 -1.2952
1090 2 4.09704 7.4243 -3.21294
1149 1 2.22651 9.38705 -3.01208
1153 2 5.69372 9.48085 -3.10074
1091 2 2.03511 7.48289 -1.38273
1095 2 5.71075 7.66991 -1.34635
1152 2 3.9603 9.40603 -1.06519
1094 2 7.47836 7.61741 -3.12915
1157 2 9.42947 9.31653 -3.16325
1099 2 9.54128 7.60603 -1.34198
1156 1 7.66476 9.47689 -1.07995
1098 2 11.3289 7.68615 -3.2457
1103 2 13.3501 7.58311 -1.38873
1160 1 11.4297 9.46099 -1.22558
1102 2 14.9364 7.62396 -3.27602
1161 1 13.2724 9.53631 -3.31279
1107 1 16.7983 7.74319 -1.53823
1164 2 14.9702 9.69254 -1.34568
1106 2 18.8208 7.70251 -3.31526
1108 1 18.6285 5.90926 -1.4098
1168 1 18.7219 9.53017 -1.57358
1110 2 22.6089 7.77551 -3.28342
1111 2 20.6519 7.66368 -1.49689
1112 2 22.6339 6.01234 -1.52588
1113 2 24.4897 6.0453 -3.24655
1114 1 26.1905 7.94333 -3.13115
1115 2 24.3315 7.85405 -1.27852
1116 2 26.2419 6.05073 -1.38629