ITEM: TIMESTEP
2000
ITEM: NUMBER OF ATOMS
18000
ITEM: BOX BOUNDS pp pp pp
-5.1637917513108249e+00 5.0163791751310910e+01
-5.1637917513108249e+00 5.0163791751310910e+01
-6.8850556684145161e+00 6.6885055668414196e+01
ITEM: ATOMS id type x y z
2 2 -3.08259 -3.32385 -6.95654
64 2 -3.15077 -1.49556 -5.20874
5 2 -1.27939 50.1517 66.8727
7 2 -1.21415 -3.42582 -5.024
6 2 0.41159 -3.32518 -6.77463
8 2 0.362472 50.0417 -4.9911
11 2 2.0969 -3.40719 -5.01127
9 2 2.33456 50.3082 66.961
910 1 4.01621 -3.38736 -3.08085
12 2 4.08393 50.1614 -4.95523
913 2 5.86907 50.1096 -3.21765
10 2 4.20956 -3.2434 -6.64033
15 2 5.95576 -3.3536 -5.04839
76 2 7.65726 -1.3493 -4.8731
914 2 7.6023 -3.3599 -3.11069
19 1 9.54192 -3.24319 -5.01589
80 2 11.4301 -1.50554 -4.93135
23 2 13.184 -3.26372 -5.10232
27 2 16.8714 -3.47469 -4.94032
31 2 20.4452 -3.39803 -4.93574
88 2 18.7391 -1.34101 -4.92317
28 2 18.618 50.1981 -4.89437
30 1 22.3215 -3.27534 -6.75778
92 2 22.3871 -1.58217 -4.96199
32 2 22.4667 50.0677 -4.88624
35 2 24.3279 -3.57612 -5.01319
93 2 24.2285 -1.36928 -6.85799
36 1 26.1792 49.9919 -5.0255
39 2 28.1637 -3.41558 -5.31454
40 2 30.0129 -5.27968 -5.108
100 2 29.932 -1.69911 -5.2155
38 2 30.0238 -3.51219 -6.96628
43 2 31.7059 -3.56113 -5.09621
42 2 33.5103 -3.39743 66.8516
44 2 33.7886 50.0745 -5.11899
101 2 31.8073 -1.61267 66.7915
104 1 33.6405 -1.63725 -4.95147
41 2 31.8992 -5.16572 -7.06701
45 2 35.3061 -5.01791 -7.18797
47 2 35.5336 -3.56476 -4.95306
46 2 37.1645 -3.41487 -6.98782
49 2 38.9831 -5.30333 -7.06168
51 2 39.0529 -3.6116 -5.2288
108 2 37.3086 -1.60198 -5.22155
55 2 42.8143 -3.48017 -5.15253
50 2 41.0141 -3.31952 -6.92424
113 2 42.8683 -1.75986 -6.98976
116 2 44.6531 -1.58624 -5.18789
59 2 46.7105 -3.48214 -4.98341
54 2 44.6838 -3.56029 -7.0091
117 2 46.4491 -1.69632 -6.77164
3 2 50.2755 -3.34217 -5.20917
58 2 48.2985 -3.5299 -6.90485
124 1 -3.15253 2.14046 -5.0635
125 2 -1.2616 2.27613 -6.73156
61 2 -5.11207 -1.56421 -6.87546
65 2 -1.26037 -1.61253 -6.83129
62 2 -3.03868 0.258219 -6.90705
68 2 0.573314 -1.55161 -4.89955
67 2 -1.33121 0.15132 -4.9941
69 2 2.37673 -1.46594 -6.62739
72 2 4.11555 -1.37781 -4.85936
71 2 2.27662 0.3749 -4.67698
973 2 5.77274 -1.38237 -3.06283
75 2 5.80361 0.434568 -4.79694
974 2 7.67159 0.267523 -2.99947
79 2 9.48174 0.50791 -4.92018
140 2 11.3898 2.06001 -4.92744
84 2 15.0992 -1.58992 -4.95288
83 2 13.3265 0.237998 -5.00646
144 2 14.8765 2.26911 -4.94586
87 2 16.8873 0.458638 -5.03652
91 2 20.6363 0.427441 -4.9189
148 1 18.9012 2.42743 -4.99939
152 2 22.2418 2.34706 -4.8515
95 2 24.1139 0.301146 -5.02104
96 2 26.1131 -1.562 -5.17685
94 2 26.0944 0.386468 66.8829
156 1 26.1619 2.04594 -4.95895
99 2 28.2305 0.29822 -5.16962
160 2 29.8072 2.23368 -4.98044
103 2 31.8203 0.330912 -5.09883
165 2 35.4056 1.92627 66.9093
109 2 39.0824 -1.61711 -7.10343
107 2 35.4617 0.149993 -5.12971
106 2 37.425 0.230256 -6.99658
111 2 39.2556 0.248991 -5.26667
112 2 40.9779 -1.5809 -5.32634
115 1 42.7761 0.299887 -5.15754
119 2 46.6179 0.187942 -5.2625
114 2 44.752 0.177126 -6.96299
177 2 46.5743 1.9951 -6.93403
120 2 48.442 -1.72183 -5.17501
63 2 50.2557 0.241365 -5.11265
118 2 48.5324 0.214823 -6.89301
122 2 -3.17958 4.05986 -6.6843
127 2 -1.34666 4.15381 -4.91054
185 2 -1.24918 5.81724 -6.63094
128 1 0.499207 2.30593 -4.74677
132 2 3.90433 2.31565 -4.89068
131 2 2.39932 4.25198 -4.76434
135 2 5.8188 3.95371 -4.86581
192 2 4.16998 5.95573 -4.70661
1093 2 5.97805 5.88004 -3.05242
136 2 7.59886 2.19047 -4.82266
196 2 7.66295 5.78129 -5.04239
139 2 9.46225 3.96148 -5.12608
197 2 9.47458 5.90394 -6.83244
200 2 11.2923 5.99374 -5.20853
138 2 11.2791 3.86427 -6.73107
143 2 13.1476 4.03003 -5.16254
147 1 16.9347 4.20582 -4.91326
141 2 13.2223 2.12094 -6.69683
208 2 18.8419 6.05241 -4.93239
155 1 24.2263 4.06453 -4.87793
151 2 20.6414 4.35413 -4.93352
212 2 22.5607 6.14313 -4.98411
216 2 26.1925 5.89181 -4.94089
158 2 29.8336 4.20705 66.9576
159 2 27.9668 4.01961 -5.00111
220 2 29.8686 6.04659 -5.06944
163 2 31.5809 4.14669 -4.90526
164 2 33.5407 2.02559 -4.96562
167 2 35.3216 3.89176 -5.09431
162 2 33.2765 4.06333 67.0393
168 2 37.2758 2.12466 -5.02367
169 2 39.134 2.13917 -6.93855
171 2 39.0574 3.96355 -4.89737
166 2 37.2289 3.97439 66.9201
229 2 38.9828 5.87577 -6.88514
172 2 40.9225 2.08956 -5.18778
170 2 40.7122 4.10738 -7.02515
175 1 42.8654 4.13317 -5.20349
232 2 40.864 5.96012 -5.17815
233 2 42.6672 5.98116 -6.97305
176 2 44.7031 2.08033 -5.20725
179 2 46.4686 3.90563 -5.02272
174 2 44.734 3.93143 66.6854
180 2 48.3084 2.0562 -5.14449
123 2 -5.22196 3.9962 -5.09419
182 2 -3.19309 7.72283 -6.71814
184 2 -3.09729 5.901 -4.9983
187 2 -1.37493 7.65332 -4.92793
183 2 -5.17033 7.85869 -5.1201
188 2 0.468441 5.96791 -4.86021
248 2 0.49595 9.75924 -4.9696
186 2 0.43184 7.87166 -6.64575
191 2 2.133 7.83124 -4.92833
252 2 4.00104 9.7149 -4.92297
195 2 5.89558 7.82366 -4.94208
256 2 7.77359 9.59426 -4.94713
199 2 9.49038 7.82556 -5.14219
203 2 13.0916 8.02339 -5.14651
260 2 11.2187 9.66218 -5.04551
204 1 14.9304 6.04384 -5.01028
264 2 14.9576 9.86318 -5.08899
207 2 16.8299 7.94528 -4.98292
206 2 18.5535 7.8518 -6.86512
265 2 16.8099 9.64706 -6.87704
1165 2 16.6961 9.75517 -3.22547
211 2 20.4057 7.99271 -5.03418
1169 1 20.5724 9.58528 -3.12384
210 2 22.4787 8.00781 -6.77968
215 2 24.3139 7.78608 -5.0165
217 2 27.9839 5.9762 -6.88517
219 2 27.9966 7.85779 -5.19891
223 2 31.5849 7.71291 -5.12551
280 2 29.8197 9.62229 -5.24465
224 2 33.4983 5.89668 -5.12832
225 2 35.2499 5.70178 66.8656
227 2 35.4034 7.80516 -5.0933
284 1 33.444 9.51092 -5.1986
228 2 37.0352 5.85874 -5.07355
231 2 39.0655 7.75191 -5.16309
288 2 37.1182 9.66365 -5.28309
1189 2 38.835 9.60299 -3.49654
289 2 38.7941 9.49131 -6.99242
292 2 40.839 9.65011 -5.0295
235 2 42.7314 7.84136 -5.18743
236 2 44.6222 5.99707 -5.17837
293 2 42.8437 9.60646 -7.09381
296 2 44.8094 9.70476 -5.12059
239 2 46.5039 7.84963 -5.11166
240 2 48.268 5.86855 -5.11135
300 2 48.4051 9.58785 -5.08621
1197 2 46.62 9.68701 -3.29607
244 2 -3.1897 9.61779 -5.02444
304 2 -3.30471 13.3448 -5.08134
243 2 50.2685 11.5373 -5.01567
247 2 -1.38127 11.5646 -5.14421
251 2 2.33078 11.6065 -5.01625
308 2 0.4795 13.4174 -5.10592
312 2 4.03325 13.4448 -4.85546
255 1 5.87154 11.5332 -4.85553
259 2 9.22605 11.5207 -5.01142
316 2 7.6753 13.6484 -4.99971
320 1 11.347 13.4324 -5.01358
263 2 13.3015 11.6766 -4.94775
267 2 16.9854 11.5738 -4.92639
324 2 15.1653 13.2827 -5.0435
266 2 18.7542 11.3965 66.8509
268 2 18.5353 9.69081 -5.03093
271 2 20.5422 11.4973 -5.105
328 2 18.644 13.3777 -4.92862
329 2 20.6702 13.3457 67.0131
269 2 20.3982 9.57486 -6.87471
270 2 22.4156 11.4396 -6.94493
272 2 22.4328 9.74187 -5.00859
1170 2 22.4402 11.3678 -3.18926
275 2 24.164 11.3851 -5.06482
276 2 26.1039 9.73458 -5.12205
336 2 26.1131 13.3186 -5.04272
279 2 28.034 11.5133 -5.10634
340 2 29.8689 13.3747 -5.05896
283 2 31.5599 11.4856 -5.10668
287 1 35.2732 11.5179 -5.24487
344 2 33.3704 13.3279 -5.17922
345 2 35.3306 13.4801 66.8579
291 2 38.9246 11.4599 -5.24114
348 2 37.1558 13.3552 -5.24541
286 2 37.0878 11.5228 66.6677
349 1 39.0553 13.365 -7.06399
352 2 40.8368 13.1753 -5.10999
290 1 40.8029 11.3826 -7.16007
295 2 42.7961 11.3808 -5.15409
356 2 44.7552 13.2036 -5.25232
299 2 46.557 11.5187 -4.97935
360 2 48.5331 13.4214 -4.95573
303 2 50.1543 15.3109 -4.93959
364 2 -3.43937 17.0057 -4.87327
307 2 -1.52192 15.2204 -5.10784
368 1 0.354356 17.0375 -5.03982
311 2 2.30088 15.2658 -5.06505
372 2 3.95802 17.1699 -5.04725
315 2 5.81294 15.3123 -4.8467
376 2 7.51209 17.0563 -4.9555
1273 2 5.63403 17.1093 -3.16092
319 2 9.49357 15.3281 -4.88099
380 2 11.5034 17.0749 -4.94505
1277 2 9.48923 17.0607 -2.92887
323 1 13.3505 15.1944 -5.08478
327 2 16.8303 15.2822 -4.97767
384 2 14.9691 17.238 -5.01861
385 2 16.9894 16.8135 -6.82572
331 2 20.7307 15.0377 -4.8626
326 2 18.9288 15.0553 66.9709
332 2 22.3709 13.2983 -4.87063
335 2 24.1408 15.117 -4.84145
330 2 22.4972 15.1321 66.987
334 1 26.2532 15.1746 -6.82299
1234 2 26.1659 15.0225 -3.19352
1233 2 24.2183 13.2235 -3.18072
339 2 28.0897 15.0513 -5.05614
343 2 31.7157 15.2291 -5.02721
347 2 35.3337 15.3179 -5.05158
405 2 35.4347 17.1006 66.6307
351 2 38.9794 14.949 -5.14572
408 2 37.2377 17.0735 -5.1447
409 2 39.0807 16.9953 66.7932
412 1 40.9161 16.9251 -5.14058
350 1 41.0394 15.0178 66.7384
355 1 42.8766 15.0622 -5.08458
416 2 44.6619 17.0596 -5.08438
417 2 46.6167 17.1254 66.8586
358 2 48.3484 15.3216 66.9989
359 2 46.6012 15.146 -4.93257
420 2 48.442 17.1651 -4.9002
363 2 -4.99212 18.9643 -4.88681
367 1 -1.48957 19.0277 -4.90278
1321 2 50.2953 20.865 -3.17359
428 2 0.507641 20.831 -4.88539
1329 2 2.1179 20.7204 -3.27137
371 2 2.16651 18.9441 -5.0435
432 2 3.99808 20.8516 -5.01458
1270 2 3.98524 19.0101 -3.23813
375 2 5.80228 18.8549 -4.99083
436 2 7.62733 20.851 -4.92521
1274 2 7.60711 18.7661 -3.09375
1333 2 5.897 20.7554 -3.05621
1337 2 9.6017 20.7707 -3.00006
379 1 9.52264 18.8708 -4.84833
1278 2 11.5689 18.9293 -3.23183
383 2 13.2748 18.826 -5.04719
382 2 15.1302 18.8962 66.842
387 2 16.9209 18.9305 -5.22397
388 2 18.9454 16.722 -5.07102
389 2 20.6938 16.9731 -6.84267
391 2 20.5938 18.506 -4.91887
386 2 18.725 18.6053 -6.65319
392 2 22.4419 17.0657 -4.81
395 2 24.1685 18.5343 -5.02249
393 2 24.1468 16.9355 66.9212
396 2 26.047 16.814 -4.96707
394 1 26.1247 18.7069 66.9308
1294 2 25.8717 18.5951 -3.23219
397 1 28.303 16.9927 66.896
400 2 30.0291 17.2105 -4.97092
1297 1 28.0451 17.0101 -3.23527
399 2 28.0028 18.901 -4.99135
404 2 33.4363 16.9971 -5.09147
403 2 31.6913 19.0258 -5.15509
407 2 35.5689 18.9144 -5.27463
1365 2 35.3439 20.6971 -3.45034
468 2 37.1546 20.7019 -5.09028
411 2 39.0884 19.007 -4.89201
472 1 40.9811 21.0271 -4.86821
410 2 41.1024 18.9301 67.0127
415 2 42.8378 18.8493 -5.05766
419 2 46.3711 19.0467 -4.99757
477 2 46.5593 20.8124 66.8686
418 1 48.4747 18.9903 67.0696
480 2 48.4094 20.8825 -4.96721
424 2 -3.21101 20.9044 -4.91285
1322 2 -3.14546 22.8399 -3.08429
484 2 -3.26175 24.5619 -4.81066
1381 2 50.242 24.522 -3.08611
427 2 -1.3887 22.7759 -4.93911
431 2 2.16729 22.6176 -5.04425
488 2 0.431567 24.4383 -4.83614
430 2 4.06548 22.7028 -6.78095
492 2 4.02731 24.4077 -4.98591
493 2 5.82541 24.4772 66.8133
435 2 5.90251 22.6346 -4.9415
496 2 7.58328 24.3876 -4.96157
440 2 11.3258 20.7674 -4.96849
1341 2 13.2046 20.6675 -3.24281
443 2 13.2096 22.5344 -5.09661
439 2 9.52181 22.6455 -4.8249
444 2 15.1118 20.6432 -5.0321
447 2 16.8908 22.5329 -5.07194
445 2 16.9425 20.6474 66.8831
448 1 18.9123 20.731 -4.9462
451 2 20.7261 22.4978 -4.87695
446 2 18.7107 22.537 -6.86252
452 2 22.5068 20.4911 -4.90962
453 2 24.1944 20.4752 -6.8401
455 2 24.3098 22.5225 -4.77695
456 2 26.081 20.6252 -5.01397
1353 2 24.3479 20.5322 -3.26144
1354 2 26.1005 22.4254 -3.08054
460 2 29.7058 20.6849 -5.17504
1357 2 27.8175 20.451 -3.26218
459 2 27.8429 22.3465 -4.86275
1358 2 29.6274 22.3878 -3.01998
461 2 31.7601 20.723 -7.21039
463 2 31.4561 22.5001 -5.01623
464 2 33.4608 20.9369 -5.3536
521 2 31.5244 24.1813 -6.80098
524 2 33.4625 24.1781 -5.03175
467 2 35.3728 22.5597 -5.15205
528 2 37.2104 24.3167 -4.96108
471 2 39.0462 22.6234 -4.86768
475 2 42.7717 22.6393 -4.98743
476 2 44.5868 20.8511 -5.02612
474 1 44.7196 22.5947 66.7954
423 2 -5.01151 22.8214 -4.81373
479 2 46.5491 22.4873 -4.97303
540 2 48.4347 24.3668 -4.95632
483 2 -4.94009 26.4124 -4.83391
541 1 -5.1001 28.2516 67.017
487 1 -1.4282 26.4082 -4.92672
491 2 2.25567 26.2698 -5.06316
490 2 4.05031 26.147 -6.89123
495 2 5.93208 26.2171 -5.15385
499 2 9.53204 26.1751 -5.07977
500 2 11.2594 24.4533 -4.87157
503 2 13.2842 26.1595 -5.06189
560 2 11.5476 28.0346 -5.18743
504 2 15.1749 24.3034 -5.16595
507 2 16.8521 26.2287 -5.07653
564 1 15.0084 28.1596 -4.96718
565 1 16.9608 27.9885 66.8082
508 2 18.7571 24.3302 -4.9604
511 2 20.738 26.0209 -4.95184
506 2 18.7382 26.249 66.8621
509 2 20.5755 24.3506 66.9476
512 2 22.5457 24.4979 -4.85296
515 2 24.477 26.2431 -4.92298
510 2 22.5443 26.2047 67.0598
516 2 26.2223 24.2703 -4.99502
576 2 26.1879 28.0949 -4.97647
519 2 27.8941 26.16 -5.16112
520 2 29.6232 24.1385 -4.9297
580 2 29.8207 27.8127 -5.13784
523 2 31.4179 25.8093 -4.96148
584 1 33.4723 27.9014 -5.0009
527 2 35.3035 25.987 -4.85266
531 1 39.0334 26.2142 -4.9827
588 2 37.1281 27.9726 -4.99927
532 2 40.8325 24.3648 -4.79679
535 2 42.6767 26.2218 -4.95733
536 1 44.5571 24.4221 -4.96228
537 2 46.5837 24.3793 66.9656
539 2 46.4332 26.2256 -4.89284
596 2 44.5931 27.9945 -4.91297
533 1 42.7159 24.4101 66.8101
534 2 44.6859 26.1553 66.8674
600 1 48.2156 28.2636 -4.87258
538 1 48.4109 26.2697 66.9961
543 2 -5.13042 30.1875 -4.913
544 2 -3.17036 28.2656 -4.85825
547 2 -1.24636 30.051 -5.00853
548 2 0.4967 28.1521 -4.94855
1446 2 0.501609 29.9714 -2.99582
551 2 2.3187 29.7881 -5.14031
552 2 4.14894 27.8655 -5.02206
555 2 5.74368 29.7314 -4.83002
556 2 7.76353 27.8421 -4.94463
559 2 9.5724 29.711 -4.85834
558 2 11.3541 29.8551 67.0891
563 2 13.192 30.0097 -5.13273
620 2 11.1124 31.7076 -4.85788
567 1 17.1107 29.9717 -4.868
624 2 15.1143 31.7316 -4.9745
625 2 17.0956 31.7252 67.035
568 1 18.8755 27.874 -4.88812
569 2 20.6563 28.1895 -6.72123
628 2 19.0536 31.8092 -4.75953
571 2 20.9352 29.9198 -4.81586
1470 2 22.5777 29.9682 -2.91174
570 2 22.6373 29.8435 -6.75215
572 2 22.5698 28.015 -4.9046
575 2 24.2938 29.7861 -4.87533
574 2 26.2438 29.8503 66.7969
636 2 26.1392 31.7235 -5.01585
637 2 27.9616 31.756 66.7456
578 1 29.8683 29.9547 66.7415
579 1 28.1488 29.8733 -5.10138
640 2 29.8782 31.9113 -5.14221
583 1 31.6206 29.9422 -5.07974
644 2 33.594 31.7402 -5.06388
641 2 31.8336 31.6967 66.696
587 2 35.2978 29.9386 -5.02368
591 2 39.0393 29.805 -5.01011
586 2 37.0263 29.7334 66.8645
590 2 40.9914 29.574 66.8424
592 2 40.9852 28.2086 -4.93306
649 2 38.9303 31.4673 66.8005
593 2 42.8764 27.9928 67.0342
594 2 44.5573 29.789 -7.01032
595 2 42.7423 29.9803 -4.89704
597 2 46.2781 28.0766 -6.8635
599 1 46.341 29.9998 -4.89758
657 2 46.1234 31.8179 -6.95593
660 2 48.2205 31.8854 -4.8837
598 1 48.2406 30.1633 -6.96951
602 2 -3.201 33.7086 67.0495
604 2 -3.38194 31.8997 -4.96057
601 2 -4.97702 31.9014 -6.72434
608 2 0.495862 31.8794 -5.01966
607 2 -1.43102 33.6238 -4.90801
611 2 2.33168 33.528 -4.76923
612 1 4.25998 31.6769 -4.94724
615 2 5.91527 33.7192 -4.95671
610 2 4.20675 33.6429 -6.73172
616 2 7.50447 31.6506 -4.95174
619 2 9.31147 33.5809 -4.92544
623 2 13.2532 33.6059 -4.98756
627 2 17.1445 33.3891 -4.99665
1522 2 15.1296 33.5146 -3.22497
1585 2 17.1103 35.2828 -3.23366
685 2 17.0066 35.3835 -6.66754
631 2 20.872 33.6414 -4.82739
688 2 18.8639 35.3879 -4.89682
626 2 18.8639 33.4993 -6.78542
689 2 20.6574 35.3822 66.9441
629 2 20.6997 31.6046 67.0949
632 2 22.5967 31.9002 -4.74893
633 2 24.3282 31.599 67.1068
635 2 24.3137 33.6252 -5.0519
692 2 22.5337 35.3065 -4.92904
630 2 22.5372 33.4057 -6.77403
693 2 24.1982 35.2994 66.82
634 2 26.1344 33.4771 -7.01473
696 2 26.1267 35.3119 -5.10666
639 2 27.8512 33.6082 -5.05045
697 1 28.0466 35.3829 66.6712
700 1 29.8548 35.3689 -5.11205
701 2 31.9089 35.3415 66.7351
638 1 29.9858 33.4491 66.5528
642 2 33.6099 33.5025 66.7069
643 2 31.7816 33.5618 -5.18251
645 2 35.4137 31.6729 66.7363
648 2 37.1747 31.6176 -5.18632
647 2 35.4885 33.5546 -5.19948
651 2 38.9381 33.2612 -5.23837
646 2 37.2842 33.4596 66.5532
652 2 40.8426 31.5046 -5.15853
650 2 40.8492 33.3753 -7.0772
653 2 42.6287 31.6601 -6.87866
656 2 44.4767 31.8378 -5.1926
654 2 44.4655 33.6768 -6.94384
655 2 42.6456 33.5912 -5.23696
603 2 -5.27529 33.7882 -4.98203
658 2 48.2944 33.519 -6.83033
659 2 46.4392 33.5307 -5.19801
717 2 46.5053 35.5524 -6.77923
664 2 -3.16703 35.305 -4.87808
665 2 -1.36961 35.4855 -6.71396
662 2 -3.26031 37.2128 67.1304
667 2 -1.39875 37.0717 -4.81659
668 2 0.362444 35.4181 -4.75466
669 2 2.37539 35.3525 -6.5264
1569 2 2.18046 35.3895 -2.85682
671 2 2.30693 37.2115 -4.78865
672 2 4.24381 35.4771 -4.78403
675 2 6.02632 37.3342 -4.83959
676 2 7.76122 35.5196 -4.80235
674 2 7.62579 37.2008 -6.79493
1574 2 7.89128 37.1581 -2.93064
680 2 11.3274 35.3738 -4.87297
679 2 9.46207 37.1215 -4.98774
683 2 13.1199 37.1332 -5.15501
684 2 15.2479 35.1876 -4.94603
687 2 16.9987 37.2963 -4.95438
682 2 15.0786 37.2117 -6.63332
691 1 20.8229 37.2735 -5.15878
748 2 18.9048 39.0409 -5.08949
686 2 18.8421 37.1083 66.9702
749 2 20.6532 39.2309 -6.81933
752 2 22.4377 39.1012 -5.11209
695 1 24.3114 37.2084 -5.10618
690 2 22.511 37.2359 -7.14805
694 1 26.0602 37.234 -7.06728
699 1 28.035 37.3078 -5.03484
698 2 30.1425 37.1613 66.6148
703 2 31.9037 37.2136 -5.16506
757 2 28.1017 38.9477 66.7458
704 2 33.6756 35.2488 -5.17972
702 2 33.8296 37.0387 66.7672
707 2 35.5831 37.0759 -5.26295
1602 2 33.7515 37.1115 -3.43382
705 2 35.5708 35.3047 66.6385
708 2 37.3499 35.1712 -5.31377
709 2 39.0914 35.0921 66.6324
712 2 40.7279 35.2038 -5.32652
711 2 38.9848 37.0057 -5.10112
710 2 40.7353 37.1603 -7.05091
713 2 42.4749 35.323 -7.05357
716 2 44.4372 35.2668 -5.09474
715 2 42.6064 37.2091 -5.12022
714 1 44.4779 37.2295 -6.82609
661 2 50.1249 35.4726 -6.72937
720 2 48.3647 35.5834 -5.08841
663 2 -4.99426 37.2725 -4.83534
718 2 48.3038 37.2846 -6.92883
719 2 46.4028 37.3667 -5.06079
724 2 -3.26385 39.1299 -4.77759
723 2 -5.18112 40.8078 -4.95402
728 2 0.450759 38.9831 -4.85789
1629 2 2.35559 38.9321 -2.98932
727 2 -1.52588 40.9215 -4.82028
731 2 2.30017 40.8796 -5.01301
788 2 0.464516 42.7457 -4.97063
732 2 4.1144 38.8855 -4.96411
735 2 5.92228 40.7919 -5.03312
736 2 7.74735 39.0135 -4.95637
734 2 7.65376 40.724 -6.9023
1634 2 7.68587 40.8095 -3.0975
740 2 11.3643 38.8794 -5.08174
739 2 9.59173 40.7457 -4.82376
743 2 13.2085 40.8703 -5.07024
737 2 9.56525 39.0447 -6.74313
738 2 11.417 40.7054 -6.80283
741 2 13.2948 38.9251 -6.71588
744 2 15.1602 39.0898 -4.91325
745 2 16.9401 39.0609 -6.70927
747 2 16.8418 40.8276 -4.83287
742 2 15.0193 40.901 67.0971
805 2 16.8693 42.5894 -6.64582
751 2 20.7362 40.9333 -4.90301
808 2 18.6987 42.6085 -4.87544
746 2 18.8253 40.8975 -6.66207
755 2 24.0851 41.0555 -4.9775
753 2 24.1174 39.1374 66.8262
809 2 20.521 42.7612 -6.78154
750 2 22.4652 41.1079 -6.86784
756 2 26.001 39.1628 -4.93744
754 1 26.1529 40.8753 66.9292
760 2 30.027 38.9708 -4.95873
759 2 28.1411 40.7486 -5.04779
763 2 31.9777 40.6707 -4.96443
758 2 29.9107 40.794 66.9961
761 2 31.8739 38.9562 66.6568
764 2 33.7568 38.8869 -5.17638
767 2 35.4237 40.7696 -5.21035
825 2 35.4533 42.7304 66.6512
765 2 35.5166 39.0343 -7.05767
762 2 33.7515 40.9718 66.9147
768 2 37.315 38.9098 -5.2494
828 1 37.2201 42.7636 -5.15798
772 2 40.776 38.9604 -5.2277
771 2 39.0371 40.7605 -5.25333
829 1 39.0507 42.8913 -7.02327
832 2 40.9092 42.8865 -5.10838
769 2 38.9583 39.0435 66.6316
770 2 40.8915 41.0902 66.7096
776 2 44.3175 39.0603 -5.04748
775 2 42.4357 41.0133 -5.00231
773 2 42.4692 39.1815 -6.88442
774 2 44.3084 41 66.9941
780 1 48.2321 39.1672 -4.93343
779 2 46.1102 40.8011 -4.93891
777 2 46.4923 39.1376 67.0147
784 2 -3.34072 42.7774 -4.83952
787 2 -1.37606 44.5231 -4.75789
786 2 0.45001 44.5911 67.1219
791 1 2.36805 44.6085 -4.84842
792 2 4.17537 42.733 -4.8993
795 2 6.11839 44.462 -5.00587
852 2 4.20658 46.4232 -4.98209
793 2 6.01344 42.4723 -6.82513
794 2 7.74835 44.6182 -6.76394
796 2 7.7224 42.5927 -4.87414
1693 2 6.05781 42.5965 -2.97723
799 2 9.58111 44.5524 -4.98705
800 2 11.5518 42.6989 -4.98828
803 2 13.3873 44.5146 -5.00416
804 2 15.1289 42.777 -4.8614
802 2 15.092 44.467 -6.81726
807 2 16.7547 44.4784 -4.76877
806 1 18.5606 44.6143 -6.69011
811 2 20.4335 44.5782 -4.86555
810 2 22.4072 44.5302 67.1202
812 2 22.2593 42.9691 -4.77052
815 2 24.2534 44.7367 -4.83141
813 2 24.1973 42.8654 67.0254
816 1 26.1812 42.7578 -4.8707
814 2 26.0147 44.6649 67.1628
817 1 28.2536 42.7659 66.9586
818 2 30.0254 44.6551 66.9604
819 2 28.2355 44.6652 -4.84016
820 2 30.0592 42.7609 -4.96217
880 2 30.0347 46.3614 -4.9741
821 1 31.7719 42.7271 66.9331
823 2 31.8389 44.5806 -5.01749
824 2 33.8776 42.6826 -5.14496
822 2 33.6375 44.4742 66.8121
827 2 35.3901 44.7454 -5.10575
826 2 37.1666 44.7239 66.7819
885 2 35.3131 46.3827 66.6324
888 2 37.224 46.5092 -5.23602
831 2 39.1467 44.8642 -5.13809
889 2 39.1643 46.5886 -6.89997
892 2 41.052 46.7439 -4.8274
830 2 40.9807 44.6005 66.6685
893 1 42.7543 46.4695 66.8899
835 2 42.7301 44.6099 -5.17592
836 2 44.3432 42.8067 -4.95554
839 2 46.5897 44.6181 -5.00562
896 2 44.6749 46.4192 -4.96342
833 2 42.804 42.7858 66.7074
834 2 44.6092 44.4714 66.891
783 2 -5.12699 44.6256 -4.98059
838 2 48.4202 44.4637 66.9429
840 2 48.2719 42.6923 -4.97752
900 2 48.6044 46.4488 -5.06515
781 1 50.369 42.7751 66.9521
4 2 -3.03076 49.9891 -5.07239
841 2 -4.9746 46.4959 -6.85653
842 2 -3.15322 48.2294 -6.835
844 2 -3.15849 46.4805 -4.88803
845 2 -1.17695 46.5495 66.9633
847 2 -1.27661 48.1499 -4.82087
909 2 2.26316 49.9301 -3.16376
848 2 0.520843 46.3669 -4.83279
851 2 2.2241 48.2755 -4.98564
846 2 0.550705 48.3788 66.9546
855 2 5.95788 48.3747 -4.99048
16 2 7.81743 50.2147 -4.94889
856 2 7.84952 46.5166 -4.97102
859 2 9.66521 48.3002 -5.07365
20 2 11.3927 50.2453 -4.9675
860 2 11.3028 46.3419 -4.98309
24 2 14.9658 50.0785 -5.04544
863 2 13.3309 48.0677 -5.04108
864 2 15.2012 46.3493 -4.91442
867 2 16.8985 48.3487 -4.91689
29 2 20.3347 49.9502 -6.8076
868 2 18.493 46.5533 -4.96967
871 2 20.4512 48.5088 -4.72914
869 1 20.3594 46.5863 67.068
870 2 22.2539 48.377 -6.71613
872 2 22.3512 46.5335 -4.78627
873 1 24.2778 46.7005 67.017
874 2 26.518 48.233 66.7829
875 2 24.2138 48.2042 -4.72571
876 1 26.2823 46.6538 -4.97585
877 2 28.139 46.4704 66.912
878 1 30.0499 48.3061 66.788
879 2 28.179 48.2507 -4.99793
883 2 31.8448 48.1138 -4.97971
884 2 33.6044 46.3256 -5.20703
881 2 31.8453 46.3563 66.8169
882 1 33.75 48.2997 66.859
48 2 37.2467 50.0989 -5.20292
887 2 35.4884 48.2058 -5.01691
886 1 37.0605 48.3253 -7.1078
52 2 41.0033 -5.24129 -5.19605
891 2 39.1236 48.3972 -5.27014
890 2 40.8943 48.2916 -7.02723
53 2 42.8211 50.0581 -7.10059
895 2 42.8463 48.3481 -5.03458
56 1 44.7628 49.9414 -5.07409
894 2 44.759 48.0807 -6.92222
57 2 46.582 50.111 -6.87529
897 2 46.3726 46.2646 -6.67731
899 2 46.6619 48.107 -5.02655
1 1 -5.05606 49.9938 -6.78153
843 2 -4.96976 48.2414 -4.9894
60 2 48.479 49.9912 -5.01769
898 2 48.2448 48.2283 -6.90576
902 1 -3.29216 -3.4393 -3.35867
905 2 -1.38041 49.9773 -3.10835
904 2 -3.067 50.0925 -1.24742
907 2 -1.41988 -3.59436 -1.30979
906 2 0.339812 -3.48588 -3.1803
908 2 0.604182 50.0223 -1.38166
911 2 2.0958 -3.44448 -1.33898
915 1 5.79889 -3.37981 -1.15516
912 2 3.88902 50.0683 -1.28046
919 2 9.56973 -3.39385 -1.33546
918 2 11.4613 -3.42375 -3.2297
920 2 11.4069 50.0675 -1.29252
980 2 11.4713 -1.64035 -1.3231
923 2 13.2112 -3.35612 -1.36159
922 2 15.0967 -3.48563 -3.17216
981 2 13.4123 -1.56981 -3.09618
984 2 15.1487 -1.57097 -1.51294
985 2 17.1189 -1.54015 -3.22337
926 2 18.5549 -3.53699 -3.06821
989 1 20.5827 -1.66704 -3.12996
929 2 20.5064 50.1648 -3.00623
927 2 16.7958 -3.45333 -1.24756
931 2 20.5219 -3.39883 -1.25706
988 2 18.6819 -1.6114 -1.20574
928 2 18.6621 50.1185 -1.14679
930 2 22.4736 -3.50632 -3.19538
992 2 22.5172 -1.5113 -1.24999
932 2 22.3018 50.1095 -1.24149
934 2 26.0807 -3.28013 -3.36873
933 2 24.2192 49.9444 -3.05414
935 1 24.2641 -3.34765 -1.34718
996 2 26.3366 -1.55825 -1.3438
936 1 26.1499 50.1081 -1.4469
938 2 29.9447 -3.37608 -3.32953
997 2 27.9466 -1.80931 -3.5026
937 2 28.1645 -5.10442 -3.28465
939 2 28.1226 -3.4227 -1.43822
940 2 30.0814 -4.98458 -1.34451
1000 2 30.053 -1.6959 -1.56037
941 2 31.8006 50.0214 -3.23324
942 2 33.667 -3.55748 -3.24076
945 2 35.3256 49.9261 -3.14704
943 2 31.7513 -3.51349 -1.39294
947 2 35.3724 -3.54729 -1.27982
944 2 33.5636 49.9615 -1.35097
946 2 37.2135 -3.42772 -3.28872
951 2 39.0289 -3.43074 -1.44895
950 2 40.8368 -3.47959 -3.45582
953 2 42.8309 50.2911 -3.30395
1013 2 42.8208 -1.87031 -3.31574
952 2 41.0279 50.1773 -1.40988
955 2 42.8443 -3.46226 -1.4514
1012 2 40.92 -1.66654 -1.49236
954 2 44.7336 -3.30817 -3.40644
957 2 46.7154 50.1601 -2.99056
956 2 44.7492 50.0992 -1.45761
901 2 -5.03653 50.0325 -3.18677
958 2 48.526 -3.47799 -3.31472
903 1 -5.02499 -3.35384 -1.29327
959 2 46.6675 -3.4574 -1.46465
960 2 48.5639 50.0944 -1.225
965 2 -1.33459 -1.59253 -3.27389
962 2 -3.14295 0.147593 -3.21244
1025 2 -1.44018 2.18392 -3.10041
964 2 -3.2049 -1.48641 -1.41973
967 2 -1.55204 0.289556 -1.41624
1024 2 -3.23961 2.18533 -1.46369
969 2 2.30551 -1.41112 -2.98102
966 2 0.481201 0.36844 -3.05301
968 1 0.286905 -1.50247 -1.30194
970 2 3.96604 0.578689 -2.90287
1033 1 5.8772 2.24838 -2.88917
972 1 3.95066 -1.41486 -1.11019
971 2 2.2029 0.485453 -1.18237
975 2 5.91978 0.401537 -1.0186
977 2 9.58351 -1.51443 -3.16746
976 2 7.76453 -1.41378 -1.12109
1036 2 7.72348 2.32851 -1.15227
979 2 9.44534 0.421206 -1.3894
978 2 11.3265 0.167281 -3.30085
1037 2 9.45969 2.27085 -3.1141
1040 1 11.3768 2.33086 -1.33044
983 2 13.3614 0.362728 -1.56655
1041 2 13.3661 2.10689 -3.20259
982 2 15.1983 0.301967 -3.20141
1045 2 16.9301 2.0963 -3.18289
986 2 18.7429 0.427748 -3.26979
987 2 16.9983 0.290299 -1.43204
991 1 20.497 0.306823 -1.26374
993 2 24.373 -1.62368 -3.2429
990 1 22.5405 0.384685 -3.01752
994 2 26.3467 0.11934 -3.23991
995 2 24.5372 0.092616 -1.48414
1056 2 26.3381 1.92441 -1.53275
998 1 29.9072 0.148816 -3.2508
999 2 28.163 0.195351 -1.39213
1001 2 31.7728 -1.7798 -3.24664
1002 2 33.8051 0.305173 -3.09569
1004 1 33.7579 -1.66435 -1.32078
1003 1 31.777 0.219791 -1.43268
1005 2 35.6412 -1.52473 -3.28609
1009 1 39.0636 -1.62524 -3.37325
1006 2 37.1866 0.271905 -3.37427
1008 2 37.174 -1.60004 -1.38305
1007 2 35.502 0.214977 -1.39153
1011 2 39.0697 0.195013 -1.56604
1010 2 40.9176 0.0575192 -3.4973
1015 1 42.7072 0.219505 -1.54349
1017 2 46.6017 -1.59851 -3.33336
1014 2 44.6266 0.241483 -3.21305
1016 2 44.6053 -1.75227 -1.39016
1019 2 46.4801 0.0800487 -1.51712
961 2 -5.11873 -1.53671 -3.42144
1021 2 -5.01418 2.17297 -3.33319
1018 2 48.3851 0.309557 -3.27803
1020 2 48.5101 -1.54985 -1.54246
963 2 -4.99712 0.206471 -1.62426
1022 1 -3.12437 4.11992 -3.14092
1027 2 -1.40232 4.07156 -1.23766
1029 2 2.25345 2.34221 -2.93107
1026 2 0.487555 4.1757 -2.96762
1089 2 2.23655 6.18807 -2.95883
1028 2 0.341823 2.26353 -1.25623
1031 2 2.23323 4.04556 -1.03936
1088 2 0.506375 6.01025 -1.09181
1030 2 4.08789 4.01132 -3.00653
1032 2 4.03505 2.3526 -1.03705
1092 1 4.01381 5.98963 -1.07729
1034 2 7.72735 4.07591 -3.1154
1035 2 5.98738 4.21029 -0.930081
1096 1 7.8116 6.06605 -1.09058
1039 2 9.51692 4.16038 -1.25849
1038 2 11.4492 4.0902 -3.42767
1097 1 9.56309 5.91204 -3.23316
1101 2 13.0121 6.01501 -3.24085
1100 2 11.4325 5.93081 -1.22451
1042 2 14.9072 4.10259 -3.21718
1105 2 16.8351 6.00534 -3.21671
1044 2 15.1852 2.18239 -1.36181
1043 2 13.175 4.20292 -1.46059
1104 2 14.9085 5.99467 -1.44192
1046 2 18.8571 4.25983 -3.07518
1048 2 18.6707 2.26392 -1.50382
1047 2 16.8264 4.07119 -1.53158
1049 2 20.5692 2.37397 -3.03826
1050 2 22.2885 4.22464 -2.95016
1109 2 20.5834 6.25171 -3.16405
1052 2 22.4602 2.4638 -1.28311
1051 2 20.528 4.15331 -1.1978
1055 2 24.2047 4.19475 -1.40294
1053 2 24.3515 2.13677 -3.07338
1057 2 28.0667 2.02776 -3.17483
1054 2 26.0472 3.95887 -2.82831
1117 2 28.0778 5.7219 -3.23885
1059 2 28.0289 3.92645 -1.37018
1058 2 29.9269 3.91324 -3.21443
1060 2 29.8589 2.12193 -1.40334
1063 2 31.6919 4.26026 -1.37337
1061 2 31.789 2.19267 -3.2905
1065 2 35.4495 2.12304 -3.34139
1062 2 33.5794 4.09433 -3.23768
1064 2 33.7653 2.20649 -1.28996
1067 2 35.4759 4.03464 -1.51554
1069 2 39.0883 2.05639 -3.45569
1066 2 37.1839 4.14356 -3.45945
1129 2 39.0725 6.06251 -3.37634
1068 2 37.1353 2.19888 -1.62385
1071 1 39.0341 4.12125 -1.73282
1128 2 37.0437 5.90278 -1.58881
1073 2 42.814 2.24905 -3.27159
1070 2 41.0339 4.06257 -3.31009
1072 2 40.8565 2.22086 -1.77185
1075 2 42.8206 4.25332 -1.59826
1074 2 44.6516 4.2035 -3.21671
1077 2 46.4064 2.15205 -3.2792
1133 2 42.6865 6.07457 -3.32451
1076 2 44.5356 2.2031 -1.53988
1079 2 46.447 3.98343 -1.39772
1078 2 48.3798 4.13118 -3.42558
1081 1 -5.11425 5.88895 -3.32408
1080 1 48.3793 2.19562 -1.57207
1023 2 -5.15168 3.9144 -1.42838
1140 2 48.2963 5.83807 -1.50902
1082 2 -3.22311 7.78806 -3.20309
1085 2 -1.3337 6.00845 -2.84919
1141 2 50.1805 9.59355 -3.26259
1084 2 -3.439 6.05858 -1.24137
1087 2 -1.32928 7.95031 -1.22541
1144 2 -3.19656 9.54199 -1.47974
1086 2 0.487358 7.86332 -3.08623
1145 2 -1.37163 9.5935 -3.19389
1148 2 0.414466 9.85153 -1.35871
1090 2 4.05564 7.85749 -2.97296
1149 1 2.30406 9.80121 -3.16234
1153 2 5.77405 9.70604 -3.0162
1091 2 2.28589 7.8734 -1.09781
1095 2 5.97016 7.84366 -1.07595
1152 2 4.16211 9.92651 -1.10226
1094 2 7.5747 7.72118 -3.19306
1157 2 9.49014 9.63723 -3.30767
1099 2 9.65201 7.75198 -1.14083
1156 1 7.75126 9.79743 -1.10667
1098 2 11.3615 7.87655 -3.15344
1103 2 13.1754 7.79804 -1.38177
1160 1 11.3816 9.87324 -1.22297
1102 2 14.7349 7.92889 -3.23905
1161 1 13.0564 9.84138 -3.22564
1107 1 16.7652 7.86293 -1.35767
1164 2 14.8828 9.8451 -1.28494
1106 2 18.5736 7.86837 -3.21443
1108 1 18.5845 6.03905 -1.35194
1168 1 18.7578 9.46026 -1.13979
1110 2 22.5215 7.89555 -3.50073
1111 2 20.752 7.70966 -1.24617
1112 2 22.3334 5.95062 -1.2799
1113 2 24.3057 6.02213 -3.17259
1114 1 26.3826 7.76798 -3.13964
1115 2 24.2668 7.77267 -1.34444
1116 2 26.2702 5.85573 -1.50408